
                                 *****************
                                 * O   R   C   A *
                                 *****************

                                            #,                                       
                                            ###                                      
                                            ####                                     
                                            #####                                    
                                            ######                                   
                                           ########,                                 
                                     ,,################,,,,,                         
                               ,,#################################,,                 
                          ,,##########################################,,             
                       ,#########################################, ''#####,          
                    ,#############################################,,   '####,        
                  ,##################################################,,,,####,       
                ,###########''''           ''''###############################       
              ,#####''   ,,,,##########,,,,          '''####'''          '####       
            ,##' ,,,,###########################,,,                        '##       
           ' ,,###''''                  '''############,,,                           
         ,,##''                                '''############,,,,        ,,,,,,###''
      ,#''                                            '''#######################'''  
     '                                                          ''''####''''         
             ,#######,   #######,   ,#######,      ##                                
            ,#'     '#,  ##    ##  ,#'     '#,    #''#        ######   ,####,        
            ##       ##  ##   ,#'  ##            #'  '#       #        #'  '#        
            ##       ##  #######   ##           ,######,      #####,   #    #        
            '#,     ,#'  ##    ##  '#,     ,#' ,#      #,         ##   #,  ,#        
             '#######'   ##     ##  '#######'  #'      '#     #####' # '####'        



                  #######################################################
                  #                        -***-                        #
                  #          Department of theory and spectroscopy      #
                  #    Directorship and core code : Frank Neese         #
                  #        Max Planck Institute fuer Kohlenforschung    #
                  #                Kaiser Wilhelm Platz 1               #
                  #                 D-45470 Muelheim/Ruhr               #
                  #                      Germany                        #
                  #                                                     #
                  #                  All rights reserved                #
                  #                        -***-                        #
                  #######################################################


                         Program Version 5.0.4 -  RELEASE  -


 With contributions from (in alphabetic order):
   Daniel Aravena         : Magnetic Suceptibility
   Michael Atanasov       : Ab Initio Ligand Field Theory (pilot matlab implementation)
   Alexander A. Auer      : GIAO ZORA, VPT2 properties, NMR spectrum
   Ute Becker             : Parallelization
   Giovanni Bistoni       : ED, misc. LED, open-shell LED, HFLD
   Martin Brehm           : Molecular dynamics
   Dmytro Bykov           : SCF Hessian
   Vijay G. Chilkuri      : MRCI spin determinant printing, contributions to CSF-ICE
   Dipayan Datta          : RHF DLPNO-CCSD density
   Achintya Kumar Dutta   : EOM-CC, STEOM-CC
   Dmitry Ganyushin       : Spin-Orbit,Spin-Spin,Magnetic field MRCI
   Miquel Garcia          : C-PCM and meta-GGA Hessian, CC/C-PCM, Gaussian charge scheme
   Yang Guo               : DLPNO-NEVPT2, F12-NEVPT2, CIM, IAO-localization
   Andreas Hansen         : Spin unrestricted coupled pair/coupled cluster methods
   Benjamin Helmich-Paris : MC-RPA, TRAH-SCF, COSX integrals
   Lee Huntington         : MR-EOM, pCC
   Robert Izsak           : Overlap fitted RIJCOSX, COSX-SCS-MP3, EOM
   Marcus Kettner         : VPT2
   Christian Kollmar      : KDIIS, OOCD, Brueckner-CCSD(T), CCSD density, CASPT2, CASPT2-K
   Simone Kossmann        : Meta GGA functionals, TD-DFT gradient, OOMP2, MP2 Hessian
   Martin Krupicka        : Initial AUTO-CI
   Lucas Lang             : DCDCAS
   Marvin Lechner         : AUTO-CI (C++ implementation), FIC-MRCC
   Dagmar Lenk            : GEPOL surface, SMD
   Dimitrios Liakos       : Extrapolation schemes; Compound Job, initial MDCI parallelization
   Dimitrios Manganas     : Further ROCIS development; embedding schemes
   Dimitrios Pantazis     : SARC Basis sets
   Anastasios Papadopoulos: AUTO-CI, single reference methods and gradients
   Taras Petrenko         : DFT Hessian,TD-DFT gradient, ASA, ECA, R-Raman, ABS, FL, XAS/XES, NRVS
   Peter Pinski           : DLPNO-MP2, DLPNO-MP2 Gradient
   Christoph Reimann      : Effective Core Potentials
   Marius Retegan         : Local ZFS, SOC
   Christoph Riplinger    : Optimizer, TS searches, QM/MM, DLPNO-CCSD(T), (RO)-DLPNO pert. Triples
   Tobias Risthaus        : Range-separated hybrids, TD-DFT gradient, RPA, STAB
   Michael Roemelt        : Original ROCIS implementation
   Masaaki Saitow         : Open-shell DLPNO-CCSD energy and density
   Barbara Sandhoefer     : DKH picture change effects
   Avijit Sen             : IP-ROCIS
   Kantharuban Sivalingam : CASSCF convergence, NEVPT2, FIC-MRCI
   Bernardo de Souza      : ESD, SOC TD-DFT
   Georgi Stoychev        : AutoAux, RI-MP2 NMR, DLPNO-MP2 response
   Willem Van den Heuvel  : Paramagnetic NMR
   Boris Wezisla          : Elementary symmetry handling
   Frank Wennmohs         : Technical directorship


 We gratefully acknowledge several colleagues who have allowed us to
 interface, adapt or use parts of their codes:
   Stefan Grimme, W. Hujo, H. Kruse, P. Pracht,  : VdW corrections, initial TS optimization,
                  C. Bannwarth, S. Ehlert          DFT functionals, gCP, sTDA/sTD-DF
   Ed Valeev, F. Pavosevic, A. Kumar             : LibInt (2-el integral package), F12 methods
   Garnet Chan, S. Sharma, J. Yang, R. Olivares  : DMRG
   Ulf Ekstrom                                   : XCFun DFT Library
   Mihaly Kallay                                 : mrcc  (arbitrary order and MRCC methods)
   Jiri Pittner, Ondrej Demel                    : Mk-CCSD
   Frank Weinhold                                : gennbo (NPA and NBO analysis)
   Christopher J. Cramer and Donald G. Truhlar   : smd solvation model
   Lars Goerigk                                  : TD-DFT with DH, B97 family of functionals
   V. Asgeirsson, H. Jonsson                     : NEB implementation
   FAccTs GmbH                                   : IRC, NEB, NEB-TS, DLPNO-Multilevel, CI-OPT
                                                   MM, QMMM, 2- and 3-layer-ONIOM, Crystal-QMMM,
                                                   LR-CPCM, SF, NACMEs, symmetry and pop. for TD-DFT,
                                                   nearIR, NL-DFT gradient (VV10), updates on ESD,
                                                   ML-optimized integration grids
   S Lehtola, MJT Oliveira, MAL Marques          : LibXC Library
   Liviu Ungur et al                             : ANISO software


 Your calculation uses the libint2 library for the computation of 2-el integrals
 For citations please refer to: http://libint.valeyev.net

 Your ORCA version has been built with support for libXC version: 5.1.0
 For citations please refer to: https://tddft.org/programs/libxc/

 This ORCA versions uses:
   CBLAS   interface :  Fast vector & matrix operations
   LAPACKE interface :  Fast linear algebra routines
   SCALAPACK package :  Parallel linear algebra routines
   Shared memory     :  Shared parallel matrices
   BLAS/LAPACK       :  OpenBLAS 0.3.15  USE64BITINT DYNAMIC_ARCH NO_AFFINITY Haswell SINGLE_THREADED
        Core in use  :  Haswell
   Copyright (c) 2011-2014, The OpenBLAS Project


================================================================================

----- Orbital basis set information -----
Your calculation utilizes the basis: def2-SVP
   F. Weigend and R. Ahlrichs, Phys. Chem. Chem. Phys. 7, 3297 (2005).

----- AuxJ basis set information -----
Your calculation utilizes the auxiliary basis: def2/J
   F. Weigend, Phys. Chem. Chem. Phys. 8, 1057 (2006).

================================================================================
                                        WARNINGS
                       Please study these warnings very carefully!
================================================================================


INFO   : the flag for use of the SHARK integral package has been found!

================================================================================
                                       INPUT FILE
================================================================================
NAME = a/a.inp
|  1> # avogadro generated ORCA input file 
|  2> # Basic Mode
|  3> # 
|  4> !B3LYP DEF2-SVP
|  5> 
|  6> %PAL NPROCS 3 END
|  7> 
|  8> * xyz 0 1
|  9> F         -4.42700        3.47100       -2.11500
| 10> O         -3.67700       -3.99100       -0.70400
| 11> O         -5.54800       -0.28100        0.16000
| 12> O          4.22700       -1.42600       -1.13200
| 13> O         -5.90400        0.94700        4.24600
| 14> O         -4.88300        1.73500        2.49100
| 15> N         -0.20900       -1.33200       -1.22700
| 16> N          3.70700       -0.44400        0.89700
| 17> C          1.04600       -1.90700       -0.96200
| 18> C         -1.46500       -2.07900       -1.40900
| 19> C         -0.11200        0.07300       -1.15500
| 20> C          1.25800       -3.38900       -0.97000
| 21> C         -2.27700       -2.16800       -0.11800
| 22> C          1.93300       -0.85300       -0.73400
| 23> C          1.21400        0.37900       -0.85700
| 24> C         -3.72200       -2.61100       -0.38900
| 25> C         -4.61000       -2.36000        0.84600
| 26> C         -1.23800        0.96900       -1.40400
| 27> C          1.91100       -3.85900        0.32000
| 28> C          2.07100       -3.81300       -2.18400
| 29> C          1.77600        1.71700       -0.71100
| 30> C         -4.74200       -0.86400        1.16400
| 31> C          3.37400       -0.94200       -0.40600
| 32> C         -5.38600       -0.68100        2.55100
| 33> C         -2.01300        1.43000       -0.33700
| 34> C         -1.53100        1.36900       -2.71000
| 35> C          2.73300        2.18000       -1.61700
| 36> C          1.35300        2.54300        0.33400
| 37> C         -3.09600        2.27100       -0.56700
| 38> C         -2.60300        2.21800       -2.95800
| 39> C          3.26400        3.45700       -1.47300
| 40> C          1.89000        3.81800        0.47200
| 41> C         -3.38300        2.65900       -1.88200
| 42> C          5.07000       -0.19800        1.30600
| 43> C         -5.34600        0.74400        3.03100
| 44> C          2.84500        4.27500       -0.42900
| 45> C          6.02100       -1.22400        1.26000
| 46> C          5.41600        1.05300        1.83400
| 47> C          7.30700       -0.98900        1.73100
| 48> C          6.70300        1.27000        2.30700
| 49> C          7.65100        0.25300        2.25500
| 50> H         -2.04900       -1.58200       -2.21100
| 51> H         -1.20900       -3.10200       -1.76800
| 52> H          0.24800       -3.88300       -1.04900
| 53> H         -1.78700       -2.85800        0.59800
| 54> H         -2.31500       -1.17500        0.38900
| 55> H         -4.13600       -2.04800       -1.26300
| 56> H         -5.61400       -2.80300        0.68400
| 57> H         -4.18500       -2.88800        1.72300
| 58> H          1.31200       -3.58200        1.19700
| 59> H          2.02400       -4.95100        0.32400
| 60> H          2.91200       -3.42500        0.45100
| 61> H          2.17500       -4.90600       -2.21800
| 62> H          1.59000       -3.49700       -3.11800
| 63> H          3.08200       -3.38500       -2.17300
| 64> H         -3.71800       -0.39400        1.14900
| 65> H         -6.44100       -1.02700        2.53400
| 66> H         -4.86700       -1.32000        3.29400
| 67> H         -1.76200        1.13700        0.69000
| 68> H         -0.90800        1.02000       -3.54200
| 69> H         -4.56200       -4.24800       -0.92500
| 70> H          3.06400        1.53300       -2.43800
| 71> H          0.58800        2.18600        1.03200
| 72> H          3.08000        0.27100        1.20500
| 73> H         -3.71000        2.62800        0.27000
| 74> H         -2.83400        2.53800       -3.98000
| 75> H         -5.33600        0.64500        0.15400
| 76> H          4.01500        3.81700       -2.18500
| 77> H          1.55600        4.46400        1.29100
| 78> H          3.26600        5.28000       -0.31900
| 79> H          5.76400       -2.20500        0.84300
| 80> H          4.68200        1.86800        1.88000
| 81> H         -5.84700        1.86900        4.48100
| 82> H          8.05300       -1.78900        1.68900
| 83> H          6.97300        2.24700        2.71900
| 84> H          8.66500        0.43000        2.62600
| 85> *
| 86> 
| 87> 
| 88> 
| 89>                          ****END OF INPUT****
================================================================================

                       ****************************
                       * Single Point Calculation *
                       ****************************

---------------------------------
CARTESIAN COORDINATES (ANGSTROEM)
---------------------------------
  F     -4.427000    3.471000   -2.115000
  O     -3.677000   -3.991000   -0.704000
  O     -5.548000   -0.281000    0.160000
  O      4.227000   -1.426000   -1.132000
  O     -5.904000    0.947000    4.246000
  O     -4.883000    1.735000    2.491000
  N     -0.209000   -1.332000   -1.227000
  N      3.707000   -0.444000    0.897000
  C      1.046000   -1.907000   -0.962000
  C     -1.465000   -2.079000   -1.409000
  C     -0.112000    0.073000   -1.155000
  C      1.258000   -3.389000   -0.970000
  C     -2.277000   -2.168000   -0.118000
  C      1.933000   -0.853000   -0.734000
  C      1.214000    0.379000   -0.857000
  C     -3.722000   -2.611000   -0.389000
  C     -4.610000   -2.360000    0.846000
  C     -1.238000    0.969000   -1.404000
  C      1.911000   -3.859000    0.320000
  C      2.071000   -3.813000   -2.184000
  C      1.776000    1.717000   -0.711000
  C     -4.742000   -0.864000    1.164000
  C      3.374000   -0.942000   -0.406000
  C     -5.386000   -0.681000    2.551000
  C     -2.013000    1.430000   -0.337000
  C     -1.531000    1.369000   -2.710000
  C      2.733000    2.180000   -1.617000
  C      1.353000    2.543000    0.334000
  C     -3.096000    2.271000   -0.567000
  C     -2.603000    2.218000   -2.958000
  C      3.264000    3.457000   -1.473000
  C      1.890000    3.818000    0.472000
  C     -3.383000    2.659000   -1.882000
  C      5.070000   -0.198000    1.306000
  C     -5.346000    0.744000    3.031000
  C      2.845000    4.275000   -0.429000
  C      6.021000   -1.224000    1.260000
  C      5.416000    1.053000    1.834000
  C      7.307000   -0.989000    1.731000
  C      6.703000    1.270000    2.307000
  C      7.651000    0.253000    2.255000
  H     -2.049000   -1.582000   -2.211000
  H     -1.209000   -3.102000   -1.768000
  H      0.248000   -3.883000   -1.049000
  H     -1.787000   -2.858000    0.598000
  H     -2.315000   -1.175000    0.389000
  H     -4.136000   -2.048000   -1.263000
  H     -5.614000   -2.803000    0.684000
  H     -4.185000   -2.888000    1.723000
  H      1.312000   -3.582000    1.197000
  H      2.024000   -4.951000    0.324000
  H      2.912000   -3.425000    0.451000
  H      2.175000   -4.906000   -2.218000
  H      1.590000   -3.497000   -3.118000
  H      3.082000   -3.385000   -2.173000
  H     -3.718000   -0.394000    1.149000
  H     -6.441000   -1.027000    2.534000
  H     -4.867000   -1.320000    3.294000
  H     -1.762000    1.137000    0.690000
  H     -0.908000    1.020000   -3.542000
  H     -4.562000   -4.248000   -0.925000
  H      3.064000    1.533000   -2.438000
  H      0.588000    2.186000    1.032000
  H      3.080000    0.271000    1.205000
  H     -3.710000    2.628000    0.270000
  H     -2.834000    2.538000   -3.980000
  H     -5.336000    0.645000    0.154000
  H      4.015000    3.817000   -2.185000
  H      1.556000    4.464000    1.291000
  H      3.266000    5.280000   -0.319000
  H      5.764000   -2.205000    0.843000
  H      4.682000    1.868000    1.880000
  H     -5.847000    1.869000    4.481000
  H      8.053000   -1.789000    1.689000
  H      6.973000    2.247000    2.719000
  H      8.665000    0.430000    2.626000

----------------------------
CARTESIAN COORDINATES (A.U.)
----------------------------
  NO LB      ZA    FRAG     MASS         X           Y           Z
   0 F     9.0000    0    18.998   -8.365818    6.559239   -3.996771
   1 O     8.0000    0    15.999   -6.948523   -7.541897   -1.330367
   2 O     8.0000    0    15.999  -10.484201   -0.531013    0.302356
   3 O     8.0000    0    15.999    7.987872   -2.694749   -2.139170
   4 O     8.0000    0    15.999  -11.156943    1.789571    8.023777
   5 O     8.0000    0    15.999   -9.227533    3.278675    4.707308
   6 N     7.0000    0    14.007   -0.394953   -2.517115   -2.318694
   7 N     7.0000    0    14.007    7.005215   -0.839038    1.695084
   8 C     6.0000    0    12.011    1.976654   -3.603708   -1.817917
   9 C     6.0000    0    12.011   -2.768449   -3.928741   -2.662624
  10 C     6.0000    0    12.011   -0.211649    0.137950   -2.182634
  11 C     6.0000    0    12.011    2.377275   -6.404282   -1.833034
  12 C     6.0000    0    12.011   -4.302906   -4.096926   -0.222988
  13 C     6.0000    0    12.011    3.652841   -1.611936   -1.387059
  14 C     6.0000    0    12.011    2.294128    0.716206   -1.619495
  15 C     6.0000    0    12.011   -7.033561   -4.934075   -0.735103
  16 C     6.0000    0    12.011   -8.711637   -4.459754    1.598708
  17 C     6.0000    0    12.011   -2.339481    1.831145   -2.653175
  18 C     6.0000    0    12.011    3.611267   -7.292453    0.604712
  19 C     6.0000    0    12.011    3.913623   -7.205526   -4.127162
  20 C     6.0000    0    12.011    3.356154    3.244660   -1.343595
  21 C     6.0000    0    12.011   -8.961081   -1.632723    2.199641
  22 C     6.0000    0    12.011    6.375936   -1.780122   -0.767229
  23 C     6.0000    0    12.011  -10.178065   -1.286903    4.820691
  24 C     6.0000    0    12.011   -3.804019    2.702308   -0.636838
  25 C     6.0000    0    12.011   -2.893171    2.587035   -5.121158
  26 C     6.0000    0    12.011    5.164622    4.119603   -3.055687
  27 C     6.0000    0    12.011    2.556799    4.805574    0.631169
  28 C     6.0000    0    12.011   -5.850592    4.291568   -1.071475
  29 C     6.0000    0    12.011   -4.918957    4.191413   -5.589810
  30 C     6.0000    0    12.011    6.168066    6.532783   -2.783567
  31 C     6.0000    0    12.011    3.571582    7.214974    0.891951
  32 C     6.0000    0    12.011   -6.392944    5.024782   -3.556465
  33 C     6.0000    0    12.011    9.580911   -0.374166    2.467982
  34 C     6.0000    0    12.011  -10.102476    1.405956    5.727760
  35 C     6.0000    0    12.011    5.376271    8.078579   -0.810693
  36 C     6.0000    0    12.011   11.378041   -2.313025    2.381055
  37 C     6.0000    0    12.011   10.234757    1.989882    3.465758
  38 C     6.0000    0    12.011   13.808229   -1.868939    3.271116
  39 C     6.0000    0    12.011   12.666834    2.399952    4.359598
  40 C     6.0000    0    12.011   14.458295    0.478101    4.261332
  41 H     1.0000    0     1.008   -3.872049   -2.989547   -4.178184
  42 H     1.0000    0     1.008   -2.284679   -5.861930   -3.341036
  43 H     1.0000    0     1.008    0.468652   -7.337807   -1.982323
  44 H     1.0000    0     1.008   -3.376941   -5.400837    1.130056
  45 H     1.0000    0     1.008   -4.374716   -2.220428    0.735103
  46 H     1.0000    0     1.008   -7.815907   -3.870159   -2.386724
  47 H     1.0000    0     1.008  -10.608923   -5.296902    1.292573
  48 H     1.0000    0     1.008   -7.908504   -5.457529    3.255998
  49 H     1.0000    0     1.008    2.479321   -6.768999    2.262002
  50 H     1.0000    0     1.008    3.824806   -9.356034    0.612271
  51 H     1.0000    0     1.008    5.502883   -6.472312    0.852266
  52 H     1.0000    0     1.008    4.110154   -9.270996   -4.191413
  53 H     1.0000    0     1.008    3.004665   -6.608372   -5.892166
  54 H     1.0000    0     1.008    5.824136   -6.396723   -4.106375
  55 H     1.0000    0     1.008   -7.026002   -0.744552    2.171295
  56 H     1.0000    0     1.008  -12.171726   -1.940749    4.788566
  57 H     1.0000    0     1.008   -9.197297   -2.494438    6.224758
  58 H     1.0000    0     1.008   -3.329697    2.148619    1.303911
  59 H     1.0000    0     1.008   -1.715871    1.927521   -6.693410
  60 H     1.0000    0     1.008   -8.620931   -8.027557   -1.747997
  61 H     1.0000    0     1.008    5.790121    2.896950   -4.607152
  62 H     1.0000    0     1.008    1.111159    4.130941    1.950197
  63 H     1.0000    0     1.008    5.820356    0.512116    2.277120
  64 H     1.0000    0     1.008   -7.010884    4.966200    0.510226
  65 H     1.0000    0     1.008   -5.355484    4.796125   -7.521110
  66 H     1.0000    0     1.008  -10.083579    1.218873    0.291018
  67 H     1.0000    0     1.008    7.587250    7.213085   -4.129052
  68 H     1.0000    0     1.008    2.940414    8.435737    2.439636
  69 H     1.0000    0     1.008    6.171846    9.977754   -0.602823
  70 H     1.0000    0     1.008   10.892381   -4.166846    1.593039
  71 H     1.0000    0     1.008    8.847698    3.530008    3.552685
  72 H     1.0000    0     1.008  -11.049229    3.531898    8.467863
  73 H     1.0000    0     1.008   15.217965   -3.380720    3.191747
  74 H     1.0000    0     1.008   13.177060    4.246215    5.138165
  75 H     1.0000    0     1.008   16.374477    0.812582    4.962421

--------------------------------
INTERNAL COORDINATES (ANGSTROEM)
--------------------------------
 F      0   0   0     0.000000000000     0.00000000     0.00000000
 O      1   0   0     7.631177170005     0.00000000     0.00000000
 O      2   1   0     4.243964773652    30.62852153     0.00000000
 O      2   1   3     8.320794733678    77.43291684   225.74799507
 O      3   2   1     4.281368472813   118.79570656   227.38144998
 O      5   3   2     2.177937097347    45.23164904   117.24142322
 N      2   1   3     4.401230964174    57.63671382   225.04673641
 N      4   2   1     2.313344980758    82.65854952    71.77180159
 C      7   2   1     1.405658208812   115.71987146   172.74639290
 C      7   2   1     1.472640146132    15.46051277   304.20628588
 C      7   2   1     1.410183675980   130.54623472    18.10617573
 C      9   7   2     1.497107878544   122.02942081    20.37519907
 C     10   7   2     1.527725760731   112.23660086    39.76006357
 C      9   7   2     1.396305482335   106.80805418   199.75142830
 C     11   7   2     1.393095833028   107.17201543   156.41651227
 C      2   1   3     1.416209730231    23.81893648   307.03552289
 C     16   2   1     1.541677657618   110.80129567   132.94158965
 C     11   7   2     1.460374267097   123.33577874   334.67714393
 C     12   9   7     1.520331871665   111.24218058   232.79960536
 C     12   9   7     1.521361561234   110.84385100   108.54363434
 C     15  11   7     1.458562305834   126.13315612   178.85148938
 C      3   2   1     1.413343907193    62.13488506   245.25015381
 C      4   2   1     1.220221701167    55.08444613    53.94227655
 C     22   3   2     1.540127916765   110.62617026   219.74130111
 C     18  11   7     1.397009305624   119.99820929    94.34817552
 C     18  11   7     1.396955618479   119.78855440   273.94545483
 C     21  15  11     1.396801345933   120.20776101   245.49353265
 C     21  15  11     1.397580051375   120.02607209    65.19282784
 C     25  18  11     1.390348877081   120.35661857   180.73837652
 C     26  18  11     1.389780198449   120.23381948   179.79279536
 C     27  21  15     1.390476896608   119.92658549   179.94241120
 C     28  21  15     1.390337369130   119.95421951   179.98091462
 C      1   2   3     1.342970215604    45.59650466   129.97976309
 C      8   4   2     1.444148884291    96.23221195   164.12696752
 C      6   5   3     1.219856548943    34.04747827   335.77696363
 C     32  28  21     1.390206819146   120.16250656     0.14584250
 C     34   8   4     1.399711756041   120.46937563   309.73927756
 C     34   8   4     1.401249799286   119.46165695   133.93716211
 C     37  34   8     1.389554604900   119.58322971   183.74783514
 C     38  34   8     1.388231608918   119.79218671   175.96240741
 C     39  37  34     1.391213858470   120.49660392     0.45730188
 H     10   7   2     1.109625612538   108.11988772   162.42610944
 H     10   7   2     1.113977558122   108.03835467   278.39037042
 H     12   9   7     1.127110021249   107.89945822   351.07964787
 H     13  10   7     1.108537775631   110.31212085   288.29213803
 H     13  10   7     1.115590426635   110.50545104    45.17339759
 H     16   2   1     1.119035745631   109.16461704    12.51104393
 H     17  16   2     1.109283101827   109.83539806   305.71855652
 H     17  16   2     1.108394334161   109.59828417    61.55316848
 H     19  12   9     1.097569587771   111.44182824    57.68055360
 H     19  12   9     1.097838330539   110.78118409   177.59533542
 H     19  12   9     1.098871239045   111.73492095   297.27617932
 H     20  12   9     1.098463017129   110.64676220   183.28414359
 H     20  12   9     1.097074746770   111.39418824   302.88584445
 H     20  12   9     1.097918940542   112.05179423    63.30371051
 H     22   3   2     1.126810099351   109.67807231    98.19581574
 H     24  22   3     1.110418839898   110.27135914    51.52621322
 H     24  22   3     1.108932369444   109.82989226   167.96505599
 H     25  18  11     1.097077481311   119.99556572     1.37417470
 H     26  18  11     1.096427836203   119.94051671   359.22007887
 H      2   1   3     0.947689295075    97.48553306    61.72797761
 H     27  21  15     1.096453829397   119.79579116   359.80083674
 H     28  21  15     1.095389428468   119.68397705   359.09271215
 H      8   4   2     0.999608923530   135.63282304   295.61569362
 H     29  25  18     1.097731296812   120.41590323   179.55761097
 H     30  26  18     1.095556935992   120.49993651   179.72724642
 H      3   2   1     0.949976841823   138.80294941   328.10945080
 H     31  27  21     1.095693844101   119.74864891   179.96181176
 H     32  28  21     1.095277590385   119.82252245   179.92195890
 H     36  32  28     1.095155696693   120.04274870   179.94299284
 H     37  34   8     1.096493958032   120.60072496     4.62863129
 H     38  34   8     1.097769101405   120.89717065   355.97657651
 H      5   3   2     0.953183088394   120.51477170   145.85555306
 H     39  37  34     1.094659764493   119.61057981   180.41211506
 H     40  38  34     1.094154011097   119.77834510   179.98423812
 H     41  39  37     1.094150812274   120.08501177   179.86664379

---------------------------
INTERNAL COORDINATES (A.U.)
---------------------------
 F      0   0   0     0.000000000000     0.00000000     0.00000000
 O      1   0   0    14.420834930741     0.00000000     0.00000000
 O      2   1   0     8.019931144212    30.62852153     0.00000000
 O      2   1   3    15.724023263225    77.43291684   225.74799507
 O      3   2   1     8.090613892022   118.79570656   227.38144998
 O      5   3   2     4.115704650893    45.23164904   117.24142322
 N      2   1   3     8.317121174422    57.63671382   225.04673641
 N      4   2   1     4.371588466915    82.65854952    71.77180159
 C      7   2   1     2.656309052553   115.71987146   172.74639290
 C      7   2   1     2.782886570007    15.46051277   304.20628588
 C      7   2   1     2.664860946128   130.54623472    18.10617573
 C      9   7   2     2.829123883385   122.02942081    20.37519907
 C     10   7   2     2.886983295517   112.23660086    39.76006357
 C      9   7   2     2.638634960907   106.80805418   199.75142830
 C     11   7   2     2.632569602730   107.17201543   156.41651227
 C      2   1   3     2.676248538330    23.81893648   307.03552289
 C     16   2   1     2.913348559684   110.80129567   132.94158965
 C     11   7   2     2.759707417840   123.33577874   334.67714393
 C     12   9   7     2.873010870119   111.24218058   232.79960536
 C     12   9   7     2.874956701407   110.84385100   108.54363434
 C     15  11   7     2.756283307287   126.13315612   178.85148938
 C      3   2   1     2.670832917641    62.13488506   245.25015381
 C      4   2   1     2.305884837874    55.08444613    53.94227655
 C     22   3   2     2.910419973893   110.62617026   219.74130111
 C     18  11   7     2.639964994169   119.99820929    94.34817552
 C     18  11   7     2.639863540168   119.78855440   273.94545483
 C     21  15  11     2.639572007306   120.20776101   245.49353265
 C     21  15  11     2.641043547329   120.02607209    65.19282784
 C     25  18  11     2.627378608288   120.35661857   180.73837652
 C     26  18  11     2.626303961415   120.23381948   179.79279536
 C     27  21  15     2.627620530133   119.92658549   179.94241120
 C     28  21  15     2.627356861413   119.95421951   179.98091462
 C      1   2   3     2.537845913505    45.59650466   129.97976309
 C      8   4   2     2.729045887919    96.23221195   164.12696752
 C      6   5   3     2.305194800173    34.04747827   335.77696363
 C     32  28  21     2.627110157696   120.16250656     0.14584250
 C     34   8   4     2.645071885348   120.46937563   309.73927756
 C     34   8   4     2.647978365863   119.46165695   133.93716211
 C     37  34   8     2.625877651391   119.58322971   183.74783514
 C     38  34   8     2.623377551309   119.79218671   175.96240741
 C     39  37  34     2.629013186225   120.49660392     0.45730188
 H     10   7   2     2.096888518881   108.11988772   162.42610944
 H     10   7   2     2.105112504185   108.03835467   278.39037042
 H     12   9   7     2.129929262959   107.89945822   351.07964787
 H     13  10   7     2.094832805048   110.31212085   288.29213803
 H     13  10   7     2.108160383965   110.50545104    45.17339759
 H     16   2   1     2.114671093311   109.16461704    12.51104393
 H     17  16   2     2.096241267441   109.83539806   305.71855652
 H     17  16   2     2.094561739954   109.59828417    61.55316848
 H     19  12   9     2.074105933808   111.44182824    57.68055360
 H     19  12   9     2.074613784039   110.78118409   177.59533542
 H     19  12   9     2.076565698238   111.73492095   297.27617932
 H     20  12   9     2.075794270615   110.64676220   183.28414359
 H     20  12   9     2.073170819836   111.39418824   302.88584445
 H     20  12   9     2.074766114869   112.05179423    63.30371051
 H     22   3   2     2.129362492710   109.67807231    98.19581574
 H     24  22   3     2.098387501353   110.27135914    51.52621322
 H     24  22   3     2.095578479289   109.82989226   167.96505599
 H     25  18  11     2.073175987370   119.99556572     1.37417470
 H     26  18  11     2.071948336031   119.94051671   359.22007887
 H      2   1   3     1.790873227741    97.48553306    61.72797761
 H     27  21  15     2.071997456050   119.79579116   359.80083674
 H     28  21  15     2.069986029798   119.68397705   359.09271215
 H      8   4   2     1.888987106495   135.63282304   295.61569362
 H     29  25  18     2.074411519608   120.41590323   179.55761097
 H     30  26  18     2.070302573143   120.49993651   179.72724642
 H      3   2   1     1.795196064613   138.80294941   328.10945080
 H     31  27  21     2.070561291974   119.74864891   179.96181176
 H     32  28  21     2.069774686449   119.82252245   179.92195890
 H     36  32  28     2.069544340754   120.04274870   179.94299284
 H     37  34   8     2.072073288179   120.60072496     4.62863129
 H     38  34   8     2.074482959937   120.89717065   355.97657651
 H      5   3   2     1.801254992550   120.51477170   145.85555306
 H     39  37  34     2.068607164715   119.61057981   180.41211506
 H     40  38  34     2.067651429305   119.77834510   179.98423812
 H     41  39  37     2.067645384405   120.08501177   179.86664379

---------------------
BASIS SET INFORMATION
---------------------
There are 5 groups of distinct atoms

 Group   1 Type F   : 7s4p1d contracted to 3s2p1d pattern {511/31/1}
 Group   2 Type O   : 7s4p1d contracted to 3s2p1d pattern {511/31/1}
 Group   3 Type N   : 7s4p1d contracted to 3s2p1d pattern {511/31/1}
 Group   4 Type C   : 7s4p1d contracted to 3s2p1d pattern {511/31/1}
 Group   5 Type H   : 4s1p contracted to 2s1p pattern {31/1}

Atom   0F    basis set group =>   1
Atom   1O    basis set group =>   2
Atom   2O    basis set group =>   2
Atom   3O    basis set group =>   2
Atom   4O    basis set group =>   2
Atom   5O    basis set group =>   2
Atom   6N    basis set group =>   3
Atom   7N    basis set group =>   3
Atom   8C    basis set group =>   4
Atom   9C    basis set group =>   4
Atom  10C    basis set group =>   4
Atom  11C    basis set group =>   4
Atom  12C    basis set group =>   4
Atom  13C    basis set group =>   4
Atom  14C    basis set group =>   4
Atom  15C    basis set group =>   4
Atom  16C    basis set group =>   4
Atom  17C    basis set group =>   4
Atom  18C    basis set group =>   4
Atom  19C    basis set group =>   4
Atom  20C    basis set group =>   4
Atom  21C    basis set group =>   4
Atom  22C    basis set group =>   4
Atom  23C    basis set group =>   4
Atom  24C    basis set group =>   4
Atom  25C    basis set group =>   4
Atom  26C    basis set group =>   4
Atom  27C    basis set group =>   4
Atom  28C    basis set group =>   4
Atom  29C    basis set group =>   4
Atom  30C    basis set group =>   4
Atom  31C    basis set group =>   4
Atom  32C    basis set group =>   4
Atom  33C    basis set group =>   4
Atom  34C    basis set group =>   4
Atom  35C    basis set group =>   4
Atom  36C    basis set group =>   4
Atom  37C    basis set group =>   4
Atom  38C    basis set group =>   4
Atom  39C    basis set group =>   4
Atom  40C    basis set group =>   4
Atom  41H    basis set group =>   5
Atom  42H    basis set group =>   5
Atom  43H    basis set group =>   5
Atom  44H    basis set group =>   5
Atom  45H    basis set group =>   5
Atom  46H    basis set group =>   5
Atom  47H    basis set group =>   5
Atom  48H    basis set group =>   5
Atom  49H    basis set group =>   5
Atom  50H    basis set group =>   5
Atom  51H    basis set group =>   5
Atom  52H    basis set group =>   5
Atom  53H    basis set group =>   5
Atom  54H    basis set group =>   5
Atom  55H    basis set group =>   5
Atom  56H    basis set group =>   5
Atom  57H    basis set group =>   5
Atom  58H    basis set group =>   5
Atom  59H    basis set group =>   5
Atom  60H    basis set group =>   5
Atom  61H    basis set group =>   5
Atom  62H    basis set group =>   5
Atom  63H    basis set group =>   5
Atom  64H    basis set group =>   5
Atom  65H    basis set group =>   5
Atom  66H    basis set group =>   5
Atom  67H    basis set group =>   5
Atom  68H    basis set group =>   5
Atom  69H    basis set group =>   5
Atom  70H    basis set group =>   5
Atom  71H    basis set group =>   5
Atom  72H    basis set group =>   5
Atom  73H    basis set group =>   5
Atom  74H    basis set group =>   5
Atom  75H    basis set group =>   5
---------------------------------
AUXILIARY/J BASIS SET INFORMATION
---------------------------------
There are 5 groups of distinct atoms

 Group   1 Type F   : 12s5p4d2f1g contracted to 6s4p3d1f1g pattern {711111/2111/211/2/1}
 Group   2 Type O   : 12s5p4d2f1g contracted to 6s4p3d1f1g pattern {711111/2111/211/2/1}
 Group   3 Type N   : 12s5p4d2f1g contracted to 6s4p3d1f1g pattern {711111/2111/211/2/1}
 Group   4 Type C   : 12s5p4d2f1g contracted to 6s4p3d1f1g pattern {711111/2111/211/2/1}
 Group   5 Type H   : 5s2p1d contracted to 3s1p1d pattern {311/2/1}

Atom   0F    basis set group =>   1
Atom   1O    basis set group =>   2
Atom   2O    basis set group =>   2
Atom   3O    basis set group =>   2
Atom   4O    basis set group =>   2
Atom   5O    basis set group =>   2
Atom   6N    basis set group =>   3
Atom   7N    basis set group =>   3
Atom   8C    basis set group =>   4
Atom   9C    basis set group =>   4
Atom  10C    basis set group =>   4
Atom  11C    basis set group =>   4
Atom  12C    basis set group =>   4
Atom  13C    basis set group =>   4
Atom  14C    basis set group =>   4
Atom  15C    basis set group =>   4
Atom  16C    basis set group =>   4
Atom  17C    basis set group =>   4
Atom  18C    basis set group =>   4
Atom  19C    basis set group =>   4
Atom  20C    basis set group =>   4
Atom  21C    basis set group =>   4
Atom  22C    basis set group =>   4
Atom  23C    basis set group =>   4
Atom  24C    basis set group =>   4
Atom  25C    basis set group =>   4
Atom  26C    basis set group =>   4
Atom  27C    basis set group =>   4
Atom  28C    basis set group =>   4
Atom  29C    basis set group =>   4
Atom  30C    basis set group =>   4
Atom  31C    basis set group =>   4
Atom  32C    basis set group =>   4
Atom  33C    basis set group =>   4
Atom  34C    basis set group =>   4
Atom  35C    basis set group =>   4
Atom  36C    basis set group =>   4
Atom  37C    basis set group =>   4
Atom  38C    basis set group =>   4
Atom  39C    basis set group =>   4
Atom  40C    basis set group =>   4
Atom  41H    basis set group =>   5
Atom  42H    basis set group =>   5
Atom  43H    basis set group =>   5
Atom  44H    basis set group =>   5
Atom  45H    basis set group =>   5
Atom  46H    basis set group =>   5
Atom  47H    basis set group =>   5
Atom  48H    basis set group =>   5
Atom  49H    basis set group =>   5
Atom  50H    basis set group =>   5
Atom  51H    basis set group =>   5
Atom  52H    basis set group =>   5
Atom  53H    basis set group =>   5
Atom  54H    basis set group =>   5
Atom  55H    basis set group =>   5
Atom  56H    basis set group =>   5
Atom  57H    basis set group =>   5
Atom  58H    basis set group =>   5
Atom  59H    basis set group =>   5
Atom  60H    basis set group =>   5
Atom  61H    basis set group =>   5
Atom  62H    basis set group =>   5
Atom  63H    basis set group =>   5
Atom  64H    basis set group =>   5
Atom  65H    basis set group =>   5
Atom  66H    basis set group =>   5
Atom  67H    basis set group =>   5
Atom  68H    basis set group =>   5
Atom  69H    basis set group =>   5
Atom  70H    basis set group =>   5
Atom  71H    basis set group =>   5
Atom  72H    basis set group =>   5
Atom  73H    basis set group =>   5
Atom  74H    basis set group =>   5
Atom  75H    basis set group =>   5


           ************************************************************
           *        Program running with 3 parallel MPI-processes     *
           *              working on a common directory               *
           ************************************************************
------------------------------------------------------------------------------
                           ORCA GTO INTEGRAL CALCULATION
                           -- RI-GTO INTEGRALS CHOSEN --
------------------------------------------------------------------------------
------------------------------------------------------------------------------
                   ___                                                        
                  /   \      - P O W E R E D   B Y -                         
                 /     \                                                     
                 |  |  |   _    _      __       _____    __    __             
                 |  |  |  | |  | |    /  \     |  _  \  |  |  /  |          
                  \  \/   | |  | |   /    \    | | | |  |  | /  /          
                 / \  \   | |__| |  /  /\  \   | |_| |  |  |/  /          
                |  |  |   |  __  | /  /__\  \  |    /   |      \           
                |  |  |   | |  | | |   __   |  |    \   |  |\   \          
                \     /   | |  | | |  |  |  |  | |\  \  |  | \   \       
                 \___/    |_|  |_| |__|  |__|  |_| \__\ |__|  \__/        
                                                                              
                      - O R C A' S   B I G   F R I E N D -                    
                                      &                                       
                       - I N T E G R A L  F E E D E R -                       
                                                                              
 v1 FN, 2020, v2 2021                                                         
------------------------------------------------------------------------------


Reading SHARK input file a/a.SHARKINP.tmp ... ok
----------------------
SHARK INTEGRAL PACKAGE
----------------------

Number of atoms                             ...     76
Number of basis functions                   ...    749
Number of shells                            ...    351
Maximum angular momentum                    ...      2
Integral batch strategy                     ... SHARK/LIBINT Hybrid
RI-J (if used) integral strategy            ... SPLIT-RIJ (Revised 2003 algorithm where possible)
Printlevel                                  ...      1
Contraction scheme used                     ... SEGMENTED contraction
Coulomb Range Separation                    ... NOT USED
Exchange Range Separation                   ... NOT USED
Finite Nucleus Model                        ... NOT USED
Auxiliary Coulomb fitting basis             ... AVAILABLE
   # of basis functions in Aux-J            ...   2394
   # of shells in Aux-J                     ...    790
   Maximum angular momentum in Aux-J        ...      4
Auxiliary J/K fitting basis                 ... NOT available
Auxiliary Correlation fitting basis         ... NOT available
Auxiliary 'external' fitting basis          ... NOT available
Integral threshold                          ...     1.000000e-10
Primitive cut-off                           ...     1.000000e-11
Primitive pair pre-selection threshold      ...     1.000000e-11

Calculating pre-screening integrals         ... done (  0.2 sec) Dimension = 351
Organizing shell pair data                  ... done (  0.3 sec)
Shell pair information
Total number of shell pairs                 ...     61776
Shell pairs after pre-screening             ...     33647
Total number of primitive shell pairs       ...    223416
Primitive shell pairs kept                  ...     71907
          la=0 lb=0:  10773 shell pairs
          la=1 lb=0:  12774 shell pairs
          la=1 lb=1:   3845 shell pairs
          la=2 lb=0:   3759 shell pairs
          la=2 lb=1:   2199 shell pairs
          la=2 lb=2:    297 shell pairs

Calculating one electron integrals          ... done (  0.2 sec)
Calculating RI/J V-Matrix + Cholesky decomp.... done (  0.5 sec)
Calculating Nuclear repulsion               ... done (  0.0 sec) ENN=   4761.368030499485 Eh

SHARK setup successfully completed in   1.8 seconds

Maximum memory used throughout the entire GTOINT-calculation: 85.8 MB


           ************************************************************
           *        Program running with 3 parallel MPI-processes     *
           *              working on a common directory               *
           ************************************************************
-------------------------------------------------------------------------------
                                 ORCA SCF
-------------------------------------------------------------------------------

------------
SCF SETTINGS
------------
Hamiltonian:
 Density Functional     Method          .... DFT(GTOs)
 Exchange Functional    Exchange        .... B88
   X-Alpha parameter    XAlpha          ....  0.666667
   Becke's b parameter  XBeta           ....  0.004200
 Correlation Functional Correlation     .... LYP
 LDA part of GGA corr.  LDAOpt          .... VWN-5
 Gradients option       PostSCFGGA      .... off
 Hybrid DFT is turned on
   Fraction HF Exchange ScalHFX         ....  0.200000
   Scaling of DF-GGA-X  ScalDFX         ....  0.720000
   Scaling of DF-GGA-C  ScalDFC         ....  0.810000
   Scaling of DF-LDA-C  ScalLDAC        ....  1.000000
   Perturbative correction              ....  0.000000
   Density functional embedding theory  .... OFF
   NL short-range parameter             ....  4.800000
 RI-approximation to the Coulomb term is turned on
   Number of AuxJ basis functions       .... 2394
   RIJ-COSX (HFX calculated with COS-X)).... on


General Settings:
 Integral files         IntName         .... a/a
 Hartree-Fock type      HFTyp           .... RHF
 Total Charge           Charge          ....    0
 Multiplicity           Mult            ....    1
 Number of Electrons    NEL             ....  296
 Basis Dimension        Dim             ....  749
 Nuclear Repulsion      ENuc            ....   4761.3680304995 Eh

Convergence Acceleration:
 DIIS                   CNVDIIS         .... on
   Start iteration      DIISMaxIt       ....    12
   Startup error        DIISStart       ....  0.200000
   # of expansion vecs  DIISMaxEq       ....     5
   Bias factor          DIISBfac        ....   1.050
   Max. coefficient     DIISMaxC        ....  10.000
 Trust-Rad. Augm. Hess. CNVTRAH         .... auto
   Auto Start mean grad. ratio tolernc. ....  1.125000
   Auto Start start iteration           ....    20
   Auto Start num. interpolation iter.  ....    10
   Max. Number of Micro iterations      ....    16
   Max. Number of Macro iterations      .... Maxiter - #DIIS iter
   Number of Davidson start vectors     ....     2
   Converg. threshold I  (grad. norm)   ....   5.000e-05
   Converg. threshold II (energy diff.) ....   1.000e-06
   Grad. Scal. Fac. for Micro threshold ....   0.100
   Minimum threshold for Micro iter.    ....   0.010
   NR start threshold (gradient norm)   ....   0.001
   Initial trust radius                 ....   0.400
   Minimum AH scaling param. (alpha)    ....   1.000
   Maximum AH scaling param. (alpha)    .... 1000.000
   Orbital update algorithm             .... Taylor
   White noise on init. David. guess    .... on
   Maximum white noise                  ....   0.010
   Quad. conv. algorithm                .... NR
 SOSCF                  CNVSOSCF        .... on
   Start iteration      SOSCFMaxIt      ....   150
   Startup grad/error   SOSCFStart      ....  0.003300
 Level Shifting         CNVShift        .... on
   Level shift para.    LevelShift      ....    0.2500
   Turn off err/grad.   ShiftErr        ....    0.0010
 Zerner damping         CNVZerner       .... off
 Static damping         CNVDamp         .... on
   Fraction old density DampFac         ....    0.7000
   Max. Damping (<1)    DampMax         ....    0.9800
   Min. Damping (>=0)   DampMin         ....    0.0000
   Turn off err/grad.   DampErr         ....    0.1000
 Fernandez-Rico         CNVRico         .... off

SCF Procedure:
 Maximum # iterations   MaxIter         ....   125
 SCF integral mode      SCFMode         .... Direct
   Integral package                     .... SHARK and LIBINT hybrid scheme
 Reset frequency        DirectResetFreq ....    20
 Integral Threshold     Thresh          ....  1.000e-10 Eh
 Primitive CutOff       TCut            ....  1.000e-11 Eh

Convergence Tolerance:
 Convergence Check Mode ConvCheckMode   .... Total+1el-Energy
 Convergence forced     ConvForced      .... 0
 Energy Change          TolE            ....  1.000e-06 Eh
 1-El. energy change                    ....  1.000e-03 Eh
 Orbital Gradient       TolG            ....  5.000e-05
 Orbital Rotation angle TolX            ....  5.000e-05
 DIIS Error             TolErr          ....  1.000e-06


Diagonalization of the overlap matrix:
Smallest eigenvalue                        ... 2.333e-04
Time for diagonalization                   ...    0.171 sec
Threshold for overlap eigenvalues          ... 1.000e-08
Number of eigenvalues below threshold      ... 0
Time for construction of square roots      ...    0.070 sec
Total time needed                          ...    0.245 sec

Time for model grid setup =    2.441 sec

------------------------------
INITIAL GUESS: MODEL POTENTIAL
------------------------------
Loading Hartree-Fock densities                     ... done
Calculating cut-offs                               ... done
Initializing the effective Hamiltonian             ... done
Setting up the integral package (SHARK)            ... done
Starting the Coulomb interaction                   ... done (   2.6 sec)
Reading the grid                                   ... done
Mapping shells                                     ... done
Starting the XC term evaluation                    ... done (   1.0 sec)
  promolecular density results
     # of electrons  =    295.976805527
     EX              =   -244.329318102
     EC              =    -10.096883694
     EX+EC           =   -254.426201796
Transforming the Hamiltonian                       ... done (   0.1 sec)
Diagonalizing the Hamiltonian                      ... done (   0.2 sec)
Back transforming the eigenvectors                 ... done (   0.0 sec)
Now organizing SCF variables                       ... done
                      ------------------
                      INITIAL GUESS DONE (   6.3 sec)
                      ------------------
-------------------
DFT GRID GENERATION
-------------------

General Integration Accuracy     IntAcc      ... 4.388
Radial Grid Type                 RadialGrid  ... OptM3 with GC (2021)
Angular Grid (max. ang.)         AngularGrid ... 4 (Lebedev-302)
Angular grid pruning method      GridPruning ... 4 (adaptive)
Weight generation scheme         WeightScheme... Becke
Basis function cutoff            BFCut       ... 1.0000e-10
Integration weight cutoff        WCut        ... 1.0000e-14
Angular grids for H and He will be reduced by one unit
Partially contracted basis set               ... off
Rotationally invariant grid construction     ... off

Total number of grid points                  ...   354195
Total number of batches                      ...     5575
Average number of points per batch           ...       63
Average number of grid points per atom       ...     4660
Time for grid setup =    7.577 sec

--------------------
COSX GRID GENERATION
--------------------

GRIDX 1
-------
General Integration Accuracy     IntAcc      ... 3.816
Radial Grid Type                 RadialGrid  ... OptM3 with GC (2021)
Angular Grid (max. ang.)         AngularGrid ... 1 (Lebedev-50)
Angular grid pruning method      GridPruning ... 4 (adaptive)
Weight generation scheme         WeightScheme... Becke
Basis function cutoff            BFCut       ... 1.0000e-10
Integration weight cutoff        WCut        ... 1.0000e-14
Angular grids for H and He will be reduced by one unit
Partially contracted basis set               ... on
Rotationally invariant grid construction     ... off

Total number of grid points                  ...    44854
Total number of batches                      ...      736
Average number of points per batch           ...       60
Average number of grid points per atom       ...      590
UseSFitting                                  ... on

GRIDX 2
-------
General Integration Accuracy     IntAcc      ... 4.020
Radial Grid Type                 RadialGrid  ... OptM3 with GC (2021)
Angular Grid (max. ang.)         AngularGrid ... 2 (Lebedev-110)
Angular grid pruning method      GridPruning ... 4 (adaptive)
Weight generation scheme         WeightScheme... Becke
Basis function cutoff            BFCut       ... 1.0000e-10
Integration weight cutoff        WCut        ... 1.0000e-14
Angular grids for H and He will be reduced by one unit
Partially contracted basis set               ... on
Rotationally invariant grid construction     ... off

Total number of grid points                  ...    96079
Total number of batches                      ...     1540
Average number of points per batch           ...       62
Average number of grid points per atom       ...     1264
UseSFitting                                  ... on

GRIDX 3
-------
General Integration Accuracy     IntAcc      ... 4.338
Radial Grid Type                 RadialGrid  ... OptM3 with GC (2021)
Angular Grid (max. ang.)         AngularGrid ... 3 (Lebedev-194)
Angular grid pruning method      GridPruning ... 4 (adaptive)
Weight generation scheme         WeightScheme... Becke
Basis function cutoff            BFCut       ... 1.0000e-10
Integration weight cutoff        WCut        ... 1.0000e-14
Angular grids for H and He will be reduced by one unit
Partially contracted basis set               ... on
Rotationally invariant grid construction     ... off

Total number of grid points                  ...   208942
Total number of batches                      ...     3302
Average number of points per batch           ...       63
Average number of grid points per atom       ...     2749
UseSFitting                                  ... on

Time for X-Grid setup             =    9.440 sec

--------------
SCF ITERATIONS
--------------
ITER       Energy         Delta-E        Max-DP      RMS-DP      [F,P]     Damp
               ***  Starting incremental Fock matrix formation  ***
  0  -1860.6316891390   0.000000000000 0.15408278  0.00137963  0.2636502 0.7000
  1  -1861.0953789560  -0.463689816906 0.10137499  0.00093165  0.1086033 0.7000
                               ***Turning on DIIS***
  2  -1861.2799050646  -0.184526108655 0.09386406  0.00151628  0.0386019 0.0000
  3  -1861.5664773577  -0.286572293138 0.08610946  0.00061643  0.0554400 0.0000
  4  -1861.6300045250  -0.063527167274 0.01426286  0.00018710  0.0127177 0.0000
  5  -1861.6338106739  -0.003806148895 0.00742722  0.00007401  0.0102792 0.0000
                      *** Initiating the SOSCF procedure ***
                           *** Shutting down DIIS ***
                      *** Re-Reading the Fockian *** 
                      *** Removing any level shift *** 
ITER      Energy       Delta-E        Grad      Rot      Max-DP    RMS-DP
  6  -1861.63424077  -0.0004300962  0.000326  0.000326  0.001929  0.000024
               *** Restarting incremental Fock matrix formation ***
  7  -1861.63414666   0.0000941071  0.000163  0.000475  0.001206  0.000018
  8  -1861.63414240   0.0000042632  0.000362  0.000430  0.000889  0.000008
  9  -1861.63415216  -0.0000097630  0.000075  0.000222  0.000374  0.000005
 10  -1861.63415122   0.0000009468  0.000139  0.000146  0.000241  0.000003
                  ***Gradient check signals convergence***
              ***Rediagonalizing the Fockian in SOSCF/NRSCF***

               *****************************************************
               *                     SUCCESS                       *
               *           SCF CONVERGED AFTER  11 CYCLES          *
               *****************************************************

Old exchange energy                            =    -49.535596001 Eh
New exchange energy                            =    -49.535735079 Eh
Exchange energy change after final integration =     -0.000139078 Eh
Total energy after final integration           =  -1861.634291696 Eh
Final COS-X integration done in                =   105.593 sec

----------------
TOTAL SCF ENERGY
----------------

Total Energy       :        -1861.63429170 Eh          -50657.64446 eV

Components:
Nuclear Repulsion  :         4761.36803050 Eh          129563.41099 eV
Electronic Energy  :        -6623.00232220 Eh         -180221.05545 eV
One Electron Energy:       -12013.14853407 Eh         -326894.39060 eV
Two Electron Energy:         5390.14621187 Eh          146673.33515 eV
Max COSX asymmetry :            0.00000517 Eh               0.00014 eV

Virial components:
Potential Energy   :        -3705.37199005 Eh         -100828.29786 eV
Kinetic Energy     :         1843.73769835 Eh           50170.65340 eV
Virial Ratio       :            2.00970669


DFT components:
N(Alpha)           :      148.000080732392 electrons
N(Beta)            :      148.000080732392 electrons
N(Total)           :      296.000161464784 electrons
E(X)               :     -196.791595277683 Eh       
E(C)               :      -11.880311312034 Eh       
E(XC)              :     -208.671906589716 Eh       
DFET-embed. en.    :        0.000000000000 Eh       

---------------
SCF CONVERGENCE
---------------

  Last Energy change         ...   -1.4026e-06  Tolerance :   1.0000e-06
  Last MAX-Density change    ...    7.5495e-15  Tolerance :   1.0000e-05
  Last RMS-Density change    ...    3.4111e-17  Tolerance :   1.0000e-06
  Last Orbital Gradient      ...    1.2421e-05  Tolerance :   5.0000e-05
  Last Orbital Rotation      ...    4.1990e-05  Tolerance :   5.0000e-05

             **** THE GBW FILE WAS UPDATED (a/a.gbw) ****
             **** DENSITY a/a.scfp WAS UPDATED ****
             **** ENERGY FILE WAS UPDATED (a/a.en.tmp) ****
             **** THE GBW FILE WAS UPDATED (a/a.gbw) ****
             **** DENSITY a/a.scfp WAS UPDATED ****
----------------
ORBITAL ENERGIES
----------------

  NO   OCC          E(Eh)            E(eV) 
   0   2.0000     -24.699180      -672.0988 
   1   2.0000     -19.185348      -522.0599 
   2   2.0000     -19.140531      -520.8403 
   3   2.0000     -19.136786      -520.7384 
   4   2.0000     -19.133504      -520.6491 
   5   2.0000     -19.097816      -519.6780 
   6   2.0000     -14.374374      -391.1466 
   7   2.0000     -14.341239      -390.2450 
   8   2.0000     -10.336161      -281.2612 
   9   2.0000     -10.282764      -279.8082 
  10   2.0000     -10.279446      -279.7180 
  11   2.0000     -10.253802      -279.0201 
  12   2.0000     -10.242082      -278.7012 
  13   2.0000     -10.232464      -278.4395 
  14   2.0000     -10.219158      -278.0774 
  15   2.0000     -10.217953      -278.0446 
  16   2.0000     -10.212197      -277.8880 
  17   2.0000     -10.208148      -277.7778 
  18   2.0000     -10.205882      -277.7162 
  19   2.0000     -10.204766      -277.6858 
  20   2.0000     -10.204046      -277.6662 
  21   2.0000     -10.202896      -277.6349 
  22   2.0000     -10.201590      -277.5994 
  23   2.0000     -10.195115      -277.4232 
  24   2.0000     -10.194043      -277.3940 
  25   2.0000     -10.193674      -277.3840 
  26   2.0000     -10.192240      -277.3449 
  27   2.0000     -10.188183      -277.2346 
  28   2.0000     -10.187029      -277.2032 
  29   2.0000     -10.186547      -277.1900 
  30   2.0000     -10.186151      -277.1793 
  31   2.0000     -10.184193      -277.1260 
  32   2.0000     -10.180352      -277.0214 
  33   2.0000     -10.179810      -277.0067 
  34   2.0000     -10.177971      -276.9567 
  35   2.0000     -10.177300      -276.9384 
  36   2.0000     -10.175145      -276.8798 
  37   2.0000     -10.175091      -276.8783 
  38   2.0000     -10.172345      -276.8036 
  39   2.0000     -10.171003      -276.7671 
  40   2.0000     -10.163106      -276.5522 
  41   2.0000      -1.208389       -32.8819 
  42   2.0000      -1.111172       -30.2365 
  43   2.0000      -1.025177       -27.8965 
  44   2.0000      -1.019259       -27.7355 
  45   2.0000      -1.016664       -27.6648 
  46   2.0000      -1.007784       -27.4232 
  47   2.0000      -0.967090       -26.3159 
  48   2.0000      -0.903648       -24.5895 
  49   2.0000      -0.866414       -23.5763 
  50   2.0000      -0.853556       -23.2264 
  51   2.0000      -0.830499       -22.5990 
  52   2.0000      -0.816804       -22.2264 
  53   2.0000      -0.803743       -21.8710 
  54   2.0000      -0.800491       -21.7825 
  55   2.0000      -0.775253       -21.0957 
  56   2.0000      -0.764424       -20.8010 
  57   2.0000      -0.758160       -20.6306 
  58   2.0000      -0.748265       -20.3613 
  59   2.0000      -0.737140       -20.0586 
  60   2.0000      -0.731165       -19.8960 
  61   2.0000      -0.730241       -19.8709 
  62   2.0000      -0.715470       -19.4689 
  63   2.0000      -0.692959       -18.8564 
  64   2.0000      -0.671146       -18.2628 
  65   2.0000      -0.668885       -18.2013 
  66   2.0000      -0.641812       -17.4646 
  67   2.0000      -0.629633       -17.1332 
  68   2.0000      -0.626828       -17.0568 
  69   2.0000      -0.620433       -16.8829 
  70   2.0000      -0.604383       -16.4461 
  71   2.0000      -0.599421       -16.3111 
  72   2.0000      -0.598519       -16.2865 
  73   2.0000      -0.594815       -16.1857 
  74   2.0000      -0.580417       -15.7940 
  75   2.0000      -0.578268       -15.7355 
  76   2.0000      -0.566850       -15.4248 
  77   2.0000      -0.550535       -14.9808 
  78   2.0000      -0.548050       -14.9132 
  79   2.0000      -0.541266       -14.7286 
  80   2.0000      -0.532587       -14.4924 
  81   2.0000      -0.529651       -14.4125 
  82   2.0000      -0.518525       -14.1098 
  83   2.0000      -0.514243       -13.9933 
  84   2.0000      -0.511532       -13.9195 
  85   2.0000      -0.502468       -13.6729 
  86   2.0000      -0.499771       -13.5995 
  87   2.0000      -0.488906       -13.3038 
  88   2.0000      -0.481902       -13.1132 
  89   2.0000      -0.480896       -13.0859 
  90   2.0000      -0.470884       -12.8134 
  91   2.0000      -0.469752       -12.7826 
  92   2.0000      -0.463690       -12.6177 
  93   2.0000      -0.461289       -12.5523 
  94   2.0000      -0.455772       -12.4022 
  95   2.0000      -0.452953       -12.3255 
  96   2.0000      -0.448288       -12.1985 
  97   2.0000      -0.443180       -12.0595 
  98   2.0000      -0.439359       -11.9556 
  99   2.0000      -0.438278       -11.9261 
 100   2.0000      -0.437288       -11.8992 
 101   2.0000      -0.433860       -11.8059 
 102   2.0000      -0.426620       -11.6089 
 103   2.0000      -0.424081       -11.5398 
 104   2.0000      -0.421682       -11.4746 
 105   2.0000      -0.418964       -11.4006 
 106   2.0000      -0.416493       -11.3333 
 107   2.0000      -0.413763       -11.2591 
 108   2.0000      -0.408747       -11.1226 
 109   2.0000      -0.405938       -11.0461 
 110   2.0000      -0.403628       -10.9833 
 111   2.0000      -0.403039       -10.9673 
 112   2.0000      -0.399972       -10.8838 
 113   2.0000      -0.397832       -10.8256 
 114   2.0000      -0.395307       -10.7569 
 115   2.0000      -0.384476       -10.4621 
 116   2.0000      -0.383094       -10.4245 
 117   2.0000      -0.377606       -10.2752 
 118   2.0000      -0.372389       -10.1332 
 119   2.0000      -0.368007       -10.0140 
 120   2.0000      -0.365855        -9.9554 
 121   2.0000      -0.362148        -9.8545 
 122   2.0000      -0.357257        -9.7215 
 123   2.0000      -0.355648        -9.6777 
 124   2.0000      -0.352214        -9.5842 
 125   2.0000      -0.349883        -9.5208 
 126   2.0000      -0.345111        -9.3909 
 127   2.0000      -0.344304        -9.3690 
 128   2.0000      -0.339337        -9.2338 
 129   2.0000      -0.338278        -9.2050 
 130   2.0000      -0.338101        -9.2002 
 131   2.0000      -0.335935        -9.1413 
 132   2.0000      -0.330406        -8.9908 
 133   2.0000      -0.328340        -8.9346 
 134   2.0000      -0.318565        -8.6686 
 135   2.0000      -0.295699        -8.0464 
 136   2.0000      -0.291385        -7.9290 
 137   2.0000      -0.288133        -7.8405 
 138   2.0000      -0.273334        -7.4378 
 139   2.0000      -0.270483        -7.3602 
 140   2.0000      -0.259158        -7.0520 
 141   2.0000      -0.258610        -7.0371 
 142   2.0000      -0.256374        -6.9763 
 143   2.0000      -0.250659        -6.8208 
 144   2.0000      -0.244273        -6.6470 
 145   2.0000      -0.229448        -6.2436 
 146   2.0000      -0.217332        -5.9139 
 147   2.0000      -0.203976        -5.5505 
 148   0.0000      -0.028410        -0.7731 
 149   0.0000      -0.020877        -0.5681 
 150   0.0000      -0.015073        -0.4102 
 151   0.0000      -0.012031        -0.3274 
 152   0.0000      -0.010051        -0.2735 
 153   0.0000      -0.001824        -0.0496 
 154   0.0000       0.003792         0.1032 
 155   0.0000       0.018197         0.4952 
 156   0.0000       0.033637         0.9153 
 157   0.0000       0.039752         1.0817 
 158   0.0000       0.049192         1.3386 
 159   0.0000       0.050530         1.3750 
 160   0.0000       0.054974         1.4959 
 161   0.0000       0.057813         1.5732 
 162   0.0000       0.065499         1.7823 
 163   0.0000       0.069959         1.9037 
 164   0.0000       0.073555         2.0015 
 165   0.0000       0.077435         2.1071 
 166   0.0000       0.077763         2.1160 
 167   0.0000       0.089113         2.4249 
 168   0.0000       0.092422         2.5149 
 169   0.0000       0.094655         2.5757 
 170   0.0000       0.098206         2.6723 
 171   0.0000       0.101211         2.7541 
 172   0.0000       0.108500         2.9524 
 173   0.0000       0.108823         2.9612 
 174   0.0000       0.117191         3.1889 
 175   0.0000       0.119430         3.2498 
 176   0.0000       0.124572         3.3898 
 177   0.0000       0.128497         3.4966 
 178   0.0000       0.130020         3.5380 
 179   0.0000       0.133554         3.6342 
 180   0.0000       0.135883         3.6976 
 181   0.0000       0.140457         3.8220 
 182   0.0000       0.141873         3.8605 
 183   0.0000       0.146737         3.9929 
 184   0.0000       0.151281         4.1166 
 185   0.0000       0.151907         4.1336 
 186   0.0000       0.155778         4.2389 
 187   0.0000       0.160037         4.3548 
 188   0.0000       0.161048         4.3823 
 189   0.0000       0.162364         4.4182 
 190   0.0000       0.166363         4.5270 
 191   0.0000       0.172056         4.6819 
 192   0.0000       0.175001         4.7620 
 193   0.0000       0.180395         4.9088 
 194   0.0000       0.184439         5.0188 
 195   0.0000       0.186427         5.0729 
 196   0.0000       0.188947         5.1415 
 197   0.0000       0.194371         5.2891 
 198   0.0000       0.201665         5.4876 
 199   0.0000       0.204240         5.5577 
 200   0.0000       0.211274         5.7491 
 201   0.0000       0.213410         5.8072 
 202   0.0000       0.227064         6.1787 
 203   0.0000       0.232429         6.3247 
 204   0.0000       0.238998         6.5035 
 205   0.0000       0.241864         6.5814 
 206   0.0000       0.244940         6.6651 
 207   0.0000       0.250670         6.8211 
 208   0.0000       0.252902         6.8818 
 209   0.0000       0.257612         7.0100 
 210   0.0000       0.262781         7.1506 
 211   0.0000       0.267390         7.2760 
 212   0.0000       0.272126         7.4049 
 213   0.0000       0.279434         7.6038 
 214   0.0000       0.289930         7.8894 
 215   0.0000       0.293083         7.9752 
 216   0.0000       0.294641         8.0176 
 217   0.0000       0.298933         8.1344 
 218   0.0000       0.302217         8.2237 
 219   0.0000       0.305768         8.3204 
 220   0.0000       0.307544         8.3687 
 221   0.0000       0.311586         8.4787 
 222   0.0000       0.320336         8.7168 
 223   0.0000       0.324848         8.8396 
 224   0.0000       0.328154         8.9295 
 225   0.0000       0.331903         9.0315 
 226   0.0000       0.333777         9.0825 
 227   0.0000       0.337356         9.1799 
 228   0.0000       0.340191         9.2571 
 229   0.0000       0.342188         9.3114 
 230   0.0000       0.348248         9.4763 
 231   0.0000       0.356407         9.6983 
 232   0.0000       0.365484         9.9453 
 233   0.0000       0.376208        10.2371 
 234   0.0000       0.384240        10.4557 
 235   0.0000       0.385719        10.4959 
 236   0.0000       0.399097        10.8600 
 237   0.0000       0.400980        10.9112 
 238   0.0000       0.402124        10.9423 
 239   0.0000       0.414438        11.2774 
 240   0.0000       0.415688        11.3114 
 241   0.0000       0.417947        11.3729 
 242   0.0000       0.424397        11.5484 
 243   0.0000       0.427535        11.6338 
 244   0.0000       0.430319        11.7096 
 245   0.0000       0.435147        11.8409 
 246   0.0000       0.437252        11.8982 
 247   0.0000       0.438969        11.9450 
 248   0.0000       0.442295        12.0355 
 249   0.0000       0.445406        12.1201 
 250   0.0000       0.450093        12.2477 
 251   0.0000       0.450747        12.2655 
 252   0.0000       0.455050        12.3825 
 253   0.0000       0.457505        12.4493 
 254   0.0000       0.462561        12.5869 
 255   0.0000       0.465001        12.6533 
 256   0.0000       0.470979        12.8160 
 257   0.0000       0.474824        12.9206 
 258   0.0000       0.478398        13.0179 
 259   0.0000       0.482485        13.1291 
 260   0.0000       0.486724        13.2444 
 261   0.0000       0.487636        13.2693 
 262   0.0000       0.491135        13.3644 
 263   0.0000       0.494781        13.4637 
 264   0.0000       0.499154        13.5827 
 265   0.0000       0.499770        13.5994 
 266   0.0000       0.502943        13.6858 
 267   0.0000       0.509164        13.8551 
 268   0.0000       0.512993        13.9593 
 269   0.0000       0.515889        14.0381 
 270   0.0000       0.517210        14.0740 
 271   0.0000       0.519872        14.1464 
 272   0.0000       0.526512        14.3271 
 273   0.0000       0.529535        14.4094 
 274   0.0000       0.532562        14.4917 
 275   0.0000       0.536374        14.5955 
 276   0.0000       0.543060        14.7774 
 277   0.0000       0.547279        14.8922 
 278   0.0000       0.551300        15.0016 
 279   0.0000       0.553557        15.0630 
 280   0.0000       0.560452        15.2507 
 281   0.0000       0.562292        15.3007 
 282   0.0000       0.566354        15.4113 
 283   0.0000       0.572409        15.5760 
 284   0.0000       0.577541        15.7157 
 285   0.0000       0.582737        15.8571 
 286   0.0000       0.584948        15.9172 
 287   0.0000       0.590337        16.0639 
 288   0.0000       0.594848        16.1866 
 289   0.0000       0.599347        16.3091 
 290   0.0000       0.601759        16.3747 
 291   0.0000       0.604997        16.4628 
 292   0.0000       0.607949        16.5431 
 293   0.0000       0.610835        16.6217 
 294   0.0000       0.614396        16.7186 
 295   0.0000       0.616977        16.7888 
 296   0.0000       0.621493        16.9117 
 297   0.0000       0.624193        16.9852 
 298   0.0000       0.625986        17.0339 
 299   0.0000       0.627164        17.0660 
 300   0.0000       0.628671        17.1070 
 301   0.0000       0.630279        17.1508 
 302   0.0000       0.634994        17.2791 
 303   0.0000       0.638003        17.3609 
 304   0.0000       0.643011        17.4972 
 305   0.0000       0.645228        17.5575 
 306   0.0000       0.646921        17.6036 
 307   0.0000       0.647980        17.6324 
 308   0.0000       0.650057        17.6890 
 309   0.0000       0.652306        17.7502 
 310   0.0000       0.653837        17.7918 
 311   0.0000       0.655934        17.8489 
 312   0.0000       0.657153        17.8820 
 313   0.0000       0.661035        17.9877 
 314   0.0000       0.666529        18.1372 
 315   0.0000       0.667693        18.1689 
 316   0.0000       0.670120        18.2349 
 317   0.0000       0.672534        18.3006 
 318   0.0000       0.675353        18.3773 
 319   0.0000       0.678460        18.4618 
 320   0.0000       0.682271        18.5655 
 321   0.0000       0.684006        18.6127 
 322   0.0000       0.685720        18.6594 
 323   0.0000       0.687913        18.7191 
 324   0.0000       0.691246        18.8098 
 325   0.0000       0.692387        18.8408 
 326   0.0000       0.695338        18.9211 
 327   0.0000       0.696982        18.9658 
 328   0.0000       0.700422        19.0595 
 329   0.0000       0.704165        19.1613 
 330   0.0000       0.705525        19.1983 
 331   0.0000       0.709185        19.2979 
 332   0.0000       0.713451        19.4140 
 333   0.0000       0.718840        19.5606 
 334   0.0000       0.720158        19.5965 
 335   0.0000       0.723542        19.6886 
 336   0.0000       0.726238        19.7619 
 337   0.0000       0.729311        19.8456 
 338   0.0000       0.735105        20.0032 
 339   0.0000       0.735991        20.0273 
 340   0.0000       0.739575        20.1249 
 341   0.0000       0.742219        20.1968 
 342   0.0000       0.744899        20.2697 
 343   0.0000       0.750508        20.4224 
 344   0.0000       0.755136        20.5483 
 345   0.0000       0.756641        20.5892 
 346   0.0000       0.762483        20.7482 
 347   0.0000       0.769436        20.9374 
 348   0.0000       0.771352        20.9895 
 349   0.0000       0.774735        21.0816 
 350   0.0000       0.776173        21.1207 
 351   0.0000       0.782921        21.3044 
 352   0.0000       0.787723        21.4350 
 353   0.0000       0.793881        21.6026 
 354   0.0000       0.795856        21.6563 
 355   0.0000       0.798306        21.7230 
 356   0.0000       0.801047        21.7976 
 357   0.0000       0.808353        21.9964 
 358   0.0000       0.817578        22.2474 
 359   0.0000       0.819404        22.2971 
 360   0.0000       0.825985        22.4762 
 361   0.0000       0.832679        22.6583 
 362   0.0000       0.834130        22.6978 
 363   0.0000       0.844771        22.9874 
 364   0.0000       0.849324        23.1113 
 365   0.0000       0.850750        23.1501 
 366   0.0000       0.862994        23.4833 
 367   0.0000       0.868394        23.6302 
 368   0.0000       0.870659        23.6918 
 369   0.0000       0.885553        24.0971 
 370   0.0000       0.890925        24.2433 
 371   0.0000       0.897460        24.4211 
 372   0.0000       0.906687        24.6722 
 373   0.0000       0.908963        24.7341 
 374   0.0000       0.928206        25.2578 
 375   0.0000       0.937442        25.5091 
 376   0.0000       0.942503        25.6468 
 377   0.0000       0.944316        25.6961 
 378   0.0000       0.952795        25.9269 
 379   0.0000       0.958133        26.0721 
 380   0.0000       0.961461        26.1627 
 381   0.0000       0.964933        26.2572 
 382   0.0000       0.972380        26.4598 
 383   0.0000       0.978668        26.6309 
 384   0.0000       0.982817        26.7438 
 385   0.0000       1.000127        27.2148 
 386   0.0000       1.002123        27.2692 
 387   0.0000       1.010677        27.5019 
 388   0.0000       1.014732        27.6123 
 389   0.0000       1.022324        27.8189 
 390   0.0000       1.031936        28.0804 
 391   0.0000       1.043216        28.3873 
 392   0.0000       1.050642        28.5894 
 393   0.0000       1.061880        28.8952 
 394   0.0000       1.065361        28.9900 
 395   0.0000       1.067373        29.0447 
 396   0.0000       1.079528        29.3754 
 397   0.0000       1.080909        29.4130 
 398   0.0000       1.087633        29.5960 
 399   0.0000       1.098364        29.8880 
 400   0.0000       1.104601        30.0577 
 401   0.0000       1.112328        30.2680 
 402   0.0000       1.116640        30.3853 
 403   0.0000       1.122250        30.5380 
 404   0.0000       1.137291        30.9473 
 405   0.0000       1.139649        31.0114 
 406   0.0000       1.143855        31.1259 
 407   0.0000       1.149036        31.2669 
 408   0.0000       1.163162        31.6512 
 409   0.0000       1.166655        31.7463 
 410   0.0000       1.172812        31.9138 
 411   0.0000       1.184375        32.2285 
 412   0.0000       1.195081        32.5198 
 413   0.0000       1.203638        32.7527 
 414   0.0000       1.208401        32.8823 
 415   0.0000       1.211992        32.9800 
 416   0.0000       1.213413        33.0187 
 417   0.0000       1.220697        33.2169 
 418   0.0000       1.234297        33.5869 
 419   0.0000       1.237476        33.6734 
 420   0.0000       1.241514        33.7833 
 421   0.0000       1.243328        33.8327 
 422   0.0000       1.252519        34.0828 
 423   0.0000       1.253903        34.1204 
 424   0.0000       1.256315        34.1861 
 425   0.0000       1.261015        34.3140 
 426   0.0000       1.264802        34.4170 
 427   0.0000       1.271056        34.5872 
 428   0.0000       1.273319        34.6488 
 429   0.0000       1.276809        34.7437 
 430   0.0000       1.280603        34.8470 
 431   0.0000       1.283775        34.9333 
 432   0.0000       1.293340        35.1936 
 433   0.0000       1.295756        35.2593 
 434   0.0000       1.299379        35.3579 
 435   0.0000       1.301431        35.4137 
 436   0.0000       1.306620        35.5549 
 437   0.0000       1.310897        35.6713 
 438   0.0000       1.314692        35.7746 
 439   0.0000       1.320084        35.9213 
 440   0.0000       1.322660        35.9914 
 441   0.0000       1.337290        36.3895 
 442   0.0000       1.343546        36.5597 
 443   0.0000       1.345378        36.6096 
 444   0.0000       1.353920        36.8420 
 445   0.0000       1.369884        37.2764 
 446   0.0000       1.373514        37.3752 
 447   0.0000       1.383957        37.6594 
 448   0.0000       1.385847        37.7108 
 449   0.0000       1.395408        37.9710 
 450   0.0000       1.403063        38.1793 
 451   0.0000       1.410539        38.3827 
 452   0.0000       1.418556        38.6009 
 453   0.0000       1.435844        39.0713 
 454   0.0000       1.456085        39.6221 
 455   0.0000       1.461384        39.7663 
 456   0.0000       1.473772        40.1034 
 457   0.0000       1.478032        40.2193 
 458   0.0000       1.482794        40.3489 
 459   0.0000       1.497222        40.7415 
 460   0.0000       1.501779        40.8655 
 461   0.0000       1.513733        41.1908 
 462   0.0000       1.522208        41.4214 
 463   0.0000       1.528843        41.6019 
 464   0.0000       1.541650        41.9504 
 465   0.0000       1.545936        42.0670 
 466   0.0000       1.550651        42.1954 
 467   0.0000       1.556949        42.3667 
 468   0.0000       1.563567        42.5468 
 469   0.0000       1.566888        42.6372 
 470   0.0000       1.574549        42.8457 
 471   0.0000       1.587155        43.1887 
 472   0.0000       1.596622        43.4463 
 473   0.0000       1.600297        43.5463 
 474   0.0000       1.610212        43.8161 
 475   0.0000       1.618413        44.0393 
 476   0.0000       1.631700        44.4008 
 477   0.0000       1.633919        44.4612 
 478   0.0000       1.640371        44.6368 
 479   0.0000       1.650982        44.9255 
 480   0.0000       1.665299        45.3151 
 481   0.0000       1.673464        45.5373 
 482   0.0000       1.678289        45.6686 
 483   0.0000       1.682313        45.7781 
 484   0.0000       1.683808        45.8187 
 485   0.0000       1.690339        45.9965 
 486   0.0000       1.696412        46.1617 
 487   0.0000       1.700648        46.2770 
[...]
      py      :     0.907577
      dz2     :     0.041310  d :     0.186713
      dxz     :     0.045034
      dyz     :     0.032409
      dx2y2   :     0.030781
      dxy     :     0.037179
 33 C s       :     2.843315  s :     2.843315
      pz      :     0.977206  p :     2.992289
      px      :     0.938374
      py      :     1.076709
      dz2     :     0.012124  d :     0.133418
      dxz     :     0.020352
      dyz     :     0.016184
      dx2y2   :     0.043108
      dxy     :     0.041650
 34 C s       :     2.859734  s :     2.859734
      pz      :     0.883901  p :     2.757346
      px      :     0.817702
      py      :     1.055743
      dz2     :     0.081445  d :     0.279796
      dxz     :     0.048395
      dyz     :     0.060311
      dx2y2   :     0.052815
      dxy     :     0.036830
 35 C s       :     2.859804  s :     2.859804
      pz      :     1.036815  p :     3.078736
      px      :     1.013956
      py      :     1.027965
      dz2     :     0.021104  d :     0.091748
      dxz     :     0.017812
      dyz     :     0.020283
      dx2y2   :     0.016125
      dxy     :     0.016424
 36 C s       :     2.862366  s :     2.862366
      pz      :     0.988847  p :     3.074175
      px      :     1.054210
      py      :     1.031118
      dz2     :     0.007566  d :     0.088347
      dxz     :     0.014532
      dyz     :     0.009322
      dx2y2   :     0.027092
      dxy     :     0.029836
 37 C s       :     2.861577  s :     2.861577
      pz      :     1.017826  p :     3.096073
      px      :     1.051577
      py      :     1.026670
      dz2     :     0.009573  d :     0.089086
      dxz     :     0.012138
      dyz     :     0.011536
      dx2y2   :     0.025503
      dxy     :     0.030336
 38 C s       :     2.858878  s :     2.858878
      pz      :     0.982682  p :     3.070805
      px      :     1.045713
      py      :     1.042410
      dz2     :     0.010112  d :     0.092555
      dxz     :     0.012730
      dyz     :     0.011608
      dx2y2   :     0.026243
      dxy     :     0.031862
 39 C s       :     2.858009  s :     2.858009
      pz      :     0.981321  p :     3.073742
      px      :     1.059096
      py      :     1.033324
      dz2     :     0.007138  d :     0.092889
      dxz     :     0.016446
      dyz     :     0.009752
      dx2y2   :     0.031152
      dxy     :     0.028401
 40 C s       :     2.858389  s :     2.858389
      pz      :     0.997080  p :     3.089402
      px      :     1.031850
      py      :     1.060472
      dz2     :     0.007444  d :     0.091566
      dxz     :     0.009447
      dyz     :     0.015306
      dx2y2   :     0.031156
      dxy     :     0.028214
 41 H s       :     0.908115  s :     0.908115
      pz      :     0.028460  p :     0.064415
      px      :     0.018283
      py      :     0.017672
 42 H s       :     0.900521  s :     0.900521
      pz      :     0.015434  p :     0.066853
      px      :     0.012407
      py      :     0.039011
 43 H s       :     0.907111  s :     0.907111
      pz      :     0.012565  p :     0.063937
      px      :     0.034794
      py      :     0.016577
 44 H s       :     0.906393  s :     0.906393
      pz      :     0.024232  p :     0.065349
      px      :     0.017708
      py      :     0.023409
 45 H s       :     0.908874  s :     0.908874
      pz      :     0.018895  p :     0.068286
      px      :     0.013336
      py      :     0.036055
 46 H s       :     0.927160  s :     0.927160
      pz      :     0.029632  p :     0.064183
      px      :     0.015761
      py      :     0.018789
 47 H s       :     0.912956  s :     0.912956
      pz      :     0.013065  p :     0.064893
      px      :     0.035368
      py      :     0.016461
 48 H s       :     0.910964  s :     0.910964
      pz      :     0.029772  p :     0.064851
      px      :     0.016051
      py      :     0.019028
 49 H s       :     0.915942  s :     0.915942
      pz      :     0.030342  p :     0.064494
      px      :     0.020192
      py      :     0.013959
 50 H s       :     0.914187  s :     0.914187
      pz      :     0.012173  p :     0.064543
      px      :     0.013050
      py      :     0.039320
 51 H s       :     0.906615  s :     0.906615
      pz      :     0.012631  p :     0.065876
      px      :     0.036453
      py      :     0.016792
 52 H s       :     0.917971  s :     0.917971
      pz      :     0.012191  p :     0.064633
      px      :     0.013420
      py      :     0.039023
 53 H s       :     0.916760  s :     0.916760
      pz      :     0.032471  p :     0.064582
      px      :     0.017581
      py      :     0.014530
 54 H s       :     0.902899  s :     0.902899
      pz      :     0.011947  p :     0.068825
      px      :     0.039239
      py      :     0.017639
 55 H s       :     0.920969  s :     0.920969
      pz      :     0.010043  p :     0.066886
      px      :     0.039884
      py      :     0.016959
 56 H s       :     0.879780  s :     0.879780
      pz      :     0.012019  p :     0.066554
      px      :     0.039427
      py      :     0.015108
 57 H s       :     0.883149  s :     0.883149
      pz      :     0.026209  p :     0.066877
      px      :     0.018365
      py      :     0.022302
 58 H s       :     0.903763  s :     0.903763
      pz      :     0.038821  p :     0.066905
      px      :     0.013331
      py      :     0.014753
 59 H s       :     0.897723  s :     0.897723
      pz      :     0.028844  p :     0.066316
      px      :     0.022008
      py      :     0.015463
 60 H s       :     0.748071  s :     0.748071
      pz      :     0.057419  p :     0.188837
      px      :     0.090557
      py      :     0.040861
 61 H s       :     0.899534  s :     0.899534
      pz      :     0.029527  p :     0.066872
      px      :     0.015056
      py      :     0.022289
 62 H s       :     0.909436  s :     0.909436
      pz      :     0.024427  p :     0.066951
      px      :     0.028165
      py      :     0.014359
 63 H s       :     0.801046  s :     0.801046
      pz      :     0.033829  p :     0.130750
      px      :     0.040924
      py      :     0.055997
 64 H s       :     0.891322  s :     0.891322
      pz      :     0.031478  p :     0.070318
      px      :     0.022256
      py      :     0.016584
 65 H s       :     0.894132  s :     0.894132
      pz      :     0.038794  p :     0.067861
      px      :     0.013264
      py      :     0.015802
 66 H s       :     0.747552  s :     0.747552
      pz      :     0.046648  p :     0.191210
      px      :     0.051576
      py      :     0.092986
 67 H s       :     0.905197  s :     0.905197
      pz      :     0.024672  p :     0.065881
      px      :     0.026736
      py      :     0.014473
 68 H s       :     0.907451  s :     0.907451
      pz      :     0.028782  p :     0.065930
      px      :     0.015269
      py      :     0.021879
 69 H s       :     0.907003  s :     0.907003
      pz      :     0.012159  p :     0.066078
      px      :     0.017053
      py      :     0.036865
 70 H s       :     0.899799  s :     0.899799
      pz      :     0.018682  p :     0.067737
      px      :     0.012727
      py      :     0.036328
 71 H s       :     0.905107  s :     0.905107
      pz      :     0.014097  p :     0.067046
      px      :     0.024384
      py      :     0.028566
 72 H s       :     0.734583  s :     0.734583
      pz      :     0.038975  p :     0.180516
      px      :     0.044794
      py      :     0.096746
 73 H s       :     0.907176  s :     0.907176
      pz      :     0.013385  p :     0.065744
      px      :     0.024986
      py      :     0.027373
 74 H s       :     0.908105  s :     0.908105
      pz      :     0.017747  p :     0.065883
      px      :     0.012872
      py      :     0.035264
 75 H s       :     0.909321  s :     0.909321
      pz      :     0.017426  p :     0.066366
      px      :     0.036965
      py      :     0.011974


                      *****************************
                      * MAYER POPULATION ANALYSIS *
                      *****************************

  NA   - Mulliken gross atomic population
  ZA   - Total nuclear charge
  QA   - Mulliken gross atomic charge
  VA   - Mayer's total valence
  BVA  - Mayer's bonded valence
  FA   - Mayer's free valence

  ATOM       NA         ZA         QA         VA         BVA        FA
  0 F      9.1955     9.0000    -0.1955     1.1700     1.1700    -0.0000
  1 O      8.2882     8.0000    -0.2882     2.0994     2.0994     0.0000
  2 O      8.2964     8.0000    -0.2964     2.1018     2.1018     0.0000
  3 O      8.2281     8.0000    -0.2281     2.2725     2.2725     0.0000
  4 O      8.1710     8.0000    -0.1710     2.2464     2.2464    -0.0000
  5 O      8.2440     8.0000    -0.2440     2.2420     2.2420    -0.0000
  6 N      7.2370     7.0000    -0.2370     3.4340     3.4340    -0.0000
  7 N      7.1347     7.0000    -0.1347     3.1464     3.1464    -0.0000
  8 C      5.9870     6.0000     0.0130     3.9344     3.9344    -0.0000
  9 C      5.8340     6.0000     0.1660     4.0049     4.0049    -0.0000
 10 C      5.9560     6.0000     0.0440     3.7993     3.7993    -0.0000
 11 C      6.0536     6.0000    -0.0536     4.1541     4.1541    -0.0000
 12 C      5.9756     6.0000     0.0244     3.9830     3.9830    -0.0000
 13 C      6.0244     6.0000    -0.0244     3.7441     3.7441    -0.0000
 14 C      5.9558     6.0000     0.0442     3.8774     3.8774    -0.0000
 15 C      5.8855     6.0000     0.1145     4.1405     4.1405    -0.0000
 16 C      5.9116     6.0000     0.0884     3.9309     3.9309     0.0000
 17 C      6.0522     6.0000    -0.0522     3.8577     3.8577    -0.0000
 18 C      5.9543     6.0000     0.0457     3.9711     3.9711     0.0000
 19 C      5.9420     6.0000     0.0580     3.9401     3.9401    -0.0000
 20 C      6.0676     6.0000    -0.0676     3.8428     3.8428     0.0000
 21 C      5.9548     6.0000     0.0452     4.1368     4.1368     0.0000
 22 C      5.8925     6.0000     0.1075     4.1674     4.1674     0.0000
 23 C      5.9380     6.0000     0.0620     3.7722     3.7722     0.0000
 24 C      5.9778     6.0000     0.0222     3.8314     3.8314    -0.0000
 25 C      5.9571     6.0000     0.0429     3.8244     3.8244    -0.0000
 26 C      5.9701     6.0000     0.0299     3.8333     3.8333    -0.0000
 27 C      5.9900     6.0000     0.0100     3.8285     3.8285     0.0000
 28 C      6.0889     6.0000    -0.0889     3.7809     3.7809     0.0000
 29 C      6.0497     6.0000    -0.0497     3.7778     3.7778     0.0000
 30 C      5.9770     6.0000     0.0230     3.8322     3.8322    -0.0000
 31 C      5.9794     6.0000     0.0206     3.8265     3.8265    -0.0000
 32 C      5.6969     6.0000     0.3031     3.8531     3.8531    -0.0000
 33 C      5.8883     6.0000     0.1117     3.9765     3.9765     0.0000
 34 C      5.8759     6.0000     0.1241     4.3530     4.3530     0.0000
 35 C      5.9778     6.0000     0.0222     3.8227     3.8227    -0.0000
 36 C      5.9860     6.0000     0.0140     3.8749     3.8749     0.0000
 37 C      6.0114     6.0000    -0.0114     3.8223     3.8223     0.0000
 38 C      5.9958     6.0000     0.0042     3.8480     3.8480    -0.0000
 39 C      5.9927     6.0000     0.0073     3.8626     3.8626     0.0000
 40 C      5.9722     6.0000     0.0278     3.8183     3.8183    -0.0000
 41 H      0.9877     1.0000     0.0123     1.0028     1.0028    -0.0000
 42 H      0.9627     1.0000     0.0373     1.0044     1.0044    -0.0000
 43 H      1.0073     1.0000    -0.0073     0.9786     0.9786     0.0000
 44 H      0.9932     1.0000     0.0068     1.0011     1.0011    -0.0000
 45 H      1.0055     1.0000    -0.0055     1.0207     1.0207    -0.0000
 46 H      1.0032     1.0000    -0.0032     0.9991     0.9991    -0.0000
 47 H      1.0104     1.0000    -0.0104     0.9999     0.9999    -0.0000
 48 H      1.0082     1.0000    -0.0082     0.9970     0.9970     0.0000
 49 H      0.9980     1.0000     0.0020     0.9879     0.9879    -0.0000
 50 H      1.0000     1.0000     0.0000     0.9881     0.9881    -0.0000
 51 H      0.9701     1.0000     0.0299     1.0113     1.0113    -0.0000
 52 H      1.0046     1.0000    -0.0046     0.9863     0.9863    -0.0000
 53 H      1.0043     1.0000    -0.0043     0.9878     0.9878    -0.0000
 54 H      0.9658     1.0000     0.0342     1.0431     1.0431     0.0000
 55 H      0.9904     1.0000     0.0096     0.9967     0.9967    -0.0000
 56 H      0.9527     1.0000     0.0473     1.0085     1.0085    -0.0000
 57 H      0.9639     1.0000     0.0361     1.0026     1.0026     0.0000
 58 H      0.9926     1.0000     0.0074     0.9888     0.9888    -0.0000
 59 H      1.0105     1.0000    -0.0105     0.9887     0.9887    -0.0000
 60 H      0.8480     1.0000     0.1520     1.0266     1.0266    -0.0000
 61 H      1.0117     1.0000    -0.0117     0.9912     0.9912    -0.0000
 62 H      1.0358     1.0000    -0.0358     0.9933     0.9933     0.0000
 63 H      0.8871     1.0000     0.1129     1.0209     1.0209     0.0000
 64 H      0.9900     1.0000     0.0100     1.0265     1.0265     0.0000
 65 H      1.0051     1.0000    -0.0051     0.9904     0.9904     0.0000
 66 H      0.8357     1.0000     0.1643     1.0476     1.0476     0.0000
 67 H      1.0156     1.0000    -0.0156     0.9773     0.9773    -0.0000
 68 H      1.0210     1.0000    -0.0210     0.9764     0.9764    -0.0000
 69 H      1.0177     1.0000    -0.0177     0.9770     0.9770    -0.0000
 70 H      1.0165     1.0000    -0.0165     1.0033     1.0033     0.0000
 71 H      1.0282     1.0000    -0.0282     0.9953     0.9953    -0.0000
 72 H      0.8239     1.0000     0.1761     1.0392     1.0392     0.0000
 73 H      1.0197     1.0000    -0.0197     0.9770     0.9770    -0.0000
 74 H      1.0223     1.0000    -0.0223     0.9766     0.9766     0.0000
 75 H      1.0237     1.0000    -0.0237     0.9766     0.9766    -0.0000

  Mayer bond orders larger than 0.100000
B(  0-F , 32-C ) :   1.0806 B(  1-O , 15-C ) :   1.0392 B(  1-O , 60-H ) :   0.9873 
B(  2-O , 21-C ) :   1.0367 B(  2-O , 66-H ) :   0.9775 B(  3-O , 22-C ) :   2.0574 
B(  4-O , 34-C ) :   1.2439 B(  4-O , 72-H ) :   0.9481 B(  5-O , 34-C ) :   2.0325 
B(  6-N ,  8-C ) :   1.1876 B(  6-N ,  9-C ) :   0.9642 B(  6-N , 10-C ) :   1.1594 
B(  7-N , 22-C ) :   1.1129 B(  7-N , 33-C ) :   1.0164 B(  7-N , 63-H ) :   0.9237 
B(  8-C , 11-C ) :   1.0354 B(  8-C , 13-C ) :   1.4901 B(  9-C , 12-C ) :   1.0894 
B(  9-C , 41-H ) :   0.9271 B(  9-C , 42-H ) :   0.9280 B( 10-C , 14-C ) :   1.5318 
B( 10-C , 17-C ) :   0.9512 B( 11-C , 18-C ) :   1.0760 B( 11-C , 19-C ) :   1.0780 
B( 11-C , 43-H ) :   0.8817 B( 12-C , 15-C ) :   1.0436 B( 12-C , 44-H ) :   0.9087 
B( 12-C , 45-H ) :   0.9279 B( 13-C , 14-C ) :   1.3262 B( 13-C , 22-C ) :   0.8814 
B( 14-C , 20-C ) :   0.9530 B( 15-C , 16-C ) :   1.0499 B( 15-C , 46-H ) :   0.9208 
B( 16-C , 21-C ) :   1.0357 B( 16-C , 47-H ) :   0.9115 B( 16-C , 48-H ) :   0.9221 
B( 17-C , 24-C ) :   1.3960 B( 17-C , 25-C ) :   1.4024 B( 18-C , 49-H ) :   0.9625 
B( 18-C , 50-H ) :   0.9564 B( 18-C , 51-H ) :   0.9625 B( 19-C , 52-H ) :   0.9588 
B( 19-C , 53-H ) :   0.9585 B( 19-C , 54-H ) :   0.9546 B( 20-C , 26-C ) :   1.3915 
B( 20-C , 27-C ) :   1.3828 B( 21-C , 23-C ) :   1.0096 B( 21-C , 55-H ) :   0.9147 
B( 23-C , 34-C ) :   0.9695 B( 23-C , 56-H ) :   0.9060 B( 23-C , 57-H ) :   0.9108 
B( 24-C , 28-C ) :   1.3360 B( 24-C , 58-H ) :   0.9650 B( 25-C , 29-C ) :   1.3322 
B( 25-C , 59-H ) :   0.9868 B( 26-C , 30-C ) :   1.3681 B( 26-C , 61-H ) :   0.9888 
B( 27-C , 31-C ) :   1.3602 B( 27-C , 62-H ) :   0.9860 B( 28-C , 32-C ) :   1.3331 
B( 28-C , 64-H ) :   0.9795 B( 29-C , 32-C ) :   1.3475 B( 29-C , 65-H ) :   0.9880 
B( 30-C , 35-C ) :   1.3780 B( 30-C , 67-H ) :   0.9833 B( 31-C , 35-C ) :   1.3810 
B( 31-C , 68-H ) :   0.9834 B( 33-C , 36-C ) :   1.3895 B( 33-C , 37-C ) :   1.3750 
B( 35-C , 69-H ) :   0.9862 B( 36-C , 38-C ) :   1.3820 B( 36-C , 70-H ) :   0.9876 
B( 37-C , 39-C ) :   1.3815 B( 37-C , 71-H ) :   0.9832 B( 38-C , 40-C ) :   1.3765 
B( 38-C , 73-H ) :   0.9812 B( 39-C , 40-C ) :   1.3870 B( 39-C , 74-H ) :   0.9796 
B( 40-C , 75-H ) :   0.9863 

-------
TIMINGS
-------

Total SCF time: 0 days 0 hours 9 min 42 sec 

Total time                  ....     582.662 sec
Sum of individual times     ....     580.361 sec  ( 99.6%)

Fock matrix formation       ....     553.369 sec  ( 95.0%)
  Split-RI-J                ....      58.563 sec  ( 10.6% of F)
  Chain of spheres X        ....     461.455 sec  ( 83.4% of F)
  XC integration            ....      32.759 sec  (  5.9% of F)
    Basis function eval.    ....      13.346 sec  ( 40.7% of XC)
    Density eval.           ....       9.122 sec  ( 27.8% of XC)
    XC-Functional eval.     ....       1.945 sec  (  5.9% of XC)
    XC-Potential eval.      ....       5.989 sec  ( 18.3% of XC)
Diagonalization             ....       1.799 sec  (  0.3%)
Density matrix formation    ....       0.170 sec  (  0.0%)
Population analysis         ....       0.161 sec  (  0.0%)
Initial guess               ....       3.909 sec  (  0.7%)
Orbital Transformation      ....       0.000 sec  (  0.0%)
Orbital Orthonormalization  ....       0.000 sec  (  0.0%)
DIIS solution               ....       0.689 sec  (  0.1%)
SOSCF solution              ....       0.806 sec  (  0.1%)
Grid generation             ....      19.458 sec  (  3.3%)

Maximum memory used throughout the entire SCF-calculation: 187.2 MB

-------------------------   --------------------
FINAL SINGLE POINT ENERGY     -1861.634291696256
-------------------------   --------------------


                            ***************************************
                            *     ORCA property calculations      *
                            ***************************************

                                    ---------------------
                                    Active property flags
                                    ---------------------
   (+) Dipole Moment


------------------------------------------------------------------------------
                       ORCA ELECTRIC PROPERTIES CALCULATION
------------------------------------------------------------------------------

Dipole Moment Calculation                       ... on
Quadrupole Moment Calculation                   ... off
Polarizability Calculation                      ... off
GBWName                                         ... a/a.gbw
Electron density                                ... a/a.scfp
The origin for moment calculation is the CENTER OF MASS  = (-0.019850,  0.089427 -0.020771)

-------------
DIPOLE MOMENT
-------------
                                X             Y             Z
Electronic contribution:     -7.77257      26.53028      -5.17890
Nuclear contribution   :      5.88330     -26.48916       6.16892
                        -----------------------------------------
Total Dipole Moment    :     -1.88927       0.04112       0.99002
                        -----------------------------------------
Magnitude (a.u.)       :      2.13335
Magnitude (Debye)      :      5.42254



--------------------
Rotational spectrum 
--------------------
 
Rotational constants in cm-1:     0.003863     0.001633     0.001468 
Rotational constants in MHz :   115.797775    48.942613    44.012024 

 Dipole components along the rotational axes: 
x,y,z [a.u.] :    -1.887719    -0.002365     0.993826 
x,y,z [Debye]:    -4.798202    -0.006010     2.526106 

 

Timings for individual modules:

Sum of individual times         ...      585.161 sec (=   9.753 min)
GTO integral calculation        ...        2.137 sec (=   0.036 min)   0.4 %
SCF iterations                  ...      583.024 sec (=   9.717 min)  99.6 %
                             ****ORCA TERMINATED NORMALLY****
TOTAL RUN TIME: 0 days 0 hours 9 minutes 46 seconds 297 msec
