 Entering Link 1 = C:\G09W\l1.exe PID=     18880.
  
 Copyright (c) 1988,1990,1992,1993,1995,1998,2003,2009,2013,
            Gaussian, Inc.  All Rights Reserved.
  
 This is part of the Gaussian(R) 09 program.  It is based on
 the Gaussian(R) 03 system (copyright 2003, Gaussian, Inc.),
 the Gaussian(R) 98 system (copyright 1998, Gaussian, Inc.),
 the Gaussian(R) 94 system (copyright 1995, Gaussian, Inc.),
 the Gaussian 92(TM) system (copyright 1992, Gaussian, Inc.),
 the Gaussian 90(TM) system (copyright 1990, Gaussian, Inc.),
 the Gaussian 88(TM) system (copyright 1988, Gaussian, Inc.),
 the Gaussian 86(TM) system (copyright 1986, Carnegie Mellon
 University), and the Gaussian 82(TM) system (copyright 1983,
 Carnegie Mellon University). Gaussian is a federally registered
 trademark of Gaussian, Inc.
  
 This software contains proprietary and confidential information,
 including trade secrets, belonging to Gaussian, Inc.
  
 This software is provided under written license and may be
 used, copied, transmitted, or stored only in accord with that
 written license.
  
 The following legend is applicable only to US Government
 contracts under FAR:
  
                    RESTRICTED RIGHTS LEGEND
  
 Use, reproduction and disclosure by the US Government is
 subject to restrictions as set forth in subparagraphs (a)
 and (c) of the Commercial Computer Software - Restricted
 Rights clause in FAR 52.227-19.
  
 Gaussian, Inc.
 340 Quinnipiac St., Bldg. 40, Wallingford CT 06492
  
  
 ---------------------------------------------------------------
 Warning -- This program may not be used in any manner that
 competes with the business of Gaussian, Inc. or will provide
 assistance to any competitor of Gaussian, Inc.  The licensee
 of this program is prohibited from giving any competitor of
 Gaussian, Inc. access to this program.  By using this program,
 the user acknowledges that Gaussian, Inc. is engaged in the
 business of creating and licensing software in the field of
 computational chemistry and represents and warrants to the
 licensee that it is not a competitor of Gaussian, Inc. and that
 it will not use this program in any manner prohibited above.
 ---------------------------------------------------------------
  

 Cite this work as:
 Gaussian 09, Revision D.01,
 M. J. Frisch, G. W. Trucks, H. B. Schlegel, G. E. Scuseria, 
 M. A. Robb, J. R. Cheeseman, G. Scalmani, V. Barone, B. Mennucci, 
 G. A. Petersson, H. Nakatsuji, M. Caricato, X. Li, H. P. Hratchian, 
 A. F. Izmaylov, J. Bloino, G. Zheng, J. L. Sonnenberg, M. Hada, 
 M. Ehara, K. Toyota, R. Fukuda, J. Hasegawa, M. Ishida, T. Nakajima, 
 Y. Honda, O. Kitao, H. Nakai, T. Vreven, J. A. Montgomery, Jr., 
 J. E. Peralta, F. Ogliaro, M. Bearpark, J. J. Heyd, E. Brothers, 
 K. N. Kudin, V. N. Staroverov, T. Keith, R. Kobayashi, J. Normand, 
 K. Raghavachari, A. Rendell, J. C. Burant, S. S. Iyengar, J. Tomasi, 
 M. Cossi, N. Rega, J. M. Millam, M. Klene, J. E. Knox, J. B. Cross, 
 V. Bakken, C. Adamo, J. Jaramillo, R. Gomperts, R. E. Stratmann, 
 O. Yazyev, A. J. Austin, R. Cammi, C. Pomelli, J. W. Ochterski, 
 R. L. Martin, K. Morokuma, V. G. Zakrzewski, G. A. Voth, 
 P. Salvador, J. J. Dannenberg, S. Dapprich, A. D. Daniels, 
 O. Farkas, J. B. Foresman, J. V. Ortiz, J. Cioslowski, 
 and D. J. Fox, Gaussian, Inc., Wallingford CT, 2013.
 
 ******************************************
 Gaussian 09:  IA32W-G09RevD.01 24-Apr-2013
                20-Jul-2024 
 ******************************************
 ----------------------
 # opt b3lyp/6-31g++(d,p)
 ----------------------
 1/14=-1,18=20,19=15,26=3,38=1/1,3;
 2/9=110,12=2,17=6,18=5,40=1/2;
 3/5=1,6=6,7=101,11=2,16=1,25=1,30=1,71=1,74=-5/1,2,3;
 4//1;
 5/5=2,38=5/2;
 6/7=2,8=2,9=2,10=2,28=1/1;
 7//1,2,3,16;
 1/14=-1,18=20,19=15,26=3/3(2);
 2/9=110/2;
 99//99;
 2/9=110/2;
 3/5=1,6=6,7=101,11=2,16=1,25=1,30=1,71=1,74=-5/1,2,3;
 4/5=5,16=3,69=1/1;
 5/5=2,38=5/2;
 7//1,2,3,16;
 1/14=-1,18=20,19=15,26=3/3(-5);
 2/9=110/2;
 6/7=2,8=2,9=2,10=2,19=2,28=1/1;
 99/9=1/99;
 -----
 Title
 -----
 Symbolic Z-matrix:
 Charge =  0 Multiplicity = 1
 F                    -4.427     3.471    -2.115 
 O                    -3.677    -3.991    -0.704 
 O                    -5.548    -0.281     0.16 
 O                     4.227    -1.426    -1.132 
 O                    -5.904     0.947     4.246 
 O                    -4.883     1.735     2.491 
 N                    -0.209    -1.332    -1.227 
 N                     3.707    -0.444     0.897 
 C                     1.046    -1.907    -0.962 
 C                    -1.465    -2.079    -1.409 
 C                    -0.112     0.073    -1.155 
 C                     1.258    -3.389    -0.97 
 C                    -2.277    -2.168    -0.118 
 C                     1.933    -0.853    -0.734 
 C                     1.214     0.379    -0.857 
 C                    -3.722    -2.611    -0.389 
 C                    -4.61     -2.36      0.846 
 C                    -1.238     0.969    -1.404 
 C                     1.911    -3.859     0.32 
 C                     2.071    -3.813    -2.184 
 C                     1.776     1.717    -0.711 
 C                    -4.742    -0.864     1.164 
 C                     3.374    -0.942    -0.406 
 C                    -5.386    -0.681     2.551 
 C                    -2.013     1.43     -0.337 
 C                    -1.531     1.369    -2.71 
 C                     2.733     2.18     -1.617 
 C                     1.353     2.543     0.334 
 C                    -3.096     2.271    -0.567 
 C                    -2.603     2.218    -2.958 
 C                     3.264     3.457    -1.473 
 C                     1.89      3.818     0.472 
 C                    -3.383     2.659    -1.882 
 C                     5.07     -0.198     1.306 
 C                    -5.346     0.744     3.031 
 C                     2.845     4.275    -0.429 
 C                     6.021    -1.224     1.26 
 C                     5.416     1.053     1.834 
 C                     7.307    -0.989     1.731 
 C                     6.703     1.27      2.307 
 C                     7.651     0.253     2.255 
 H                    -2.049    -1.582    -2.211 
 H                    -1.209    -3.102    -1.768 
 H                     0.248    -3.883    -1.049 
 H                    -1.787    -2.858     0.598 
 H                    -2.315    -1.175     0.389 
 H                    -4.136    -2.048    -1.263 
 H                    -5.614    -2.803     0.684 
 H                    -4.185    -2.888     1.723 
 H                     1.312    -3.582     1.197 
 H                     2.024    -4.951     0.324 
 H                     2.912    -3.425     0.451 
 H                     2.175    -4.906    -2.218 
 H                     1.59     -3.497    -3.118 
 H                     3.082    -3.385    -2.173 
 H                    -3.718    -0.394     1.149 
 H                    -6.441    -1.027     2.534 
 H                    -4.867    -1.32      3.294 
 H                    -1.762     1.137     0.69 
 H                    -0.908     1.02     -3.542 
 H                    -4.562    -4.248    -0.925 
 H                     3.064     1.533    -2.438 
 H                     0.588     2.186     1.032 
 H                     3.08      0.271     1.205 
 H                    -3.71      2.628     0.27 
 H                    -2.834     2.538    -3.98 
 H                    -5.336     0.645     0.154 
 H                     4.015     3.817    -2.185 
 H                     1.556     4.464     1.291 
 H                     3.266     5.28     -0.319 
 H                     5.764    -2.205     0.843 
 H                     4.682     1.868     1.88 
 H                    -5.847     1.869     4.481 
 H                     8.053    -1.789     1.689 
 H                     6.973     2.247     2.719 
 H                     8.665     0.43      2.626 
 

 GradGradGradGradGradGradGradGradGradGradGradGradGradGradGradGradGradGrad
 Berny optimization.
 Initialization pass.
                           ----------------------------
                           !    Initial Parameters    !
                           ! (Angstroms and Degrees)  !
 --------------------------                            --------------------------
 ! Name  Definition              Value          Derivative Info.                !
 --------------------------------------------------------------------------------
 ! R1    R(1,33)                 1.343          estimate D2E/DX2                !
 ! R2    R(2,16)                 1.4162         estimate D2E/DX2                !
 ! R3    R(2,61)                 0.9477         estimate D2E/DX2                !
 ! R4    R(3,22)                 1.4133         estimate D2E/DX2                !
 ! R5    R(3,67)                 0.95           estimate D2E/DX2                !
 ! R6    R(4,23)                 1.2202         estimate D2E/DX2                !
 ! R7    R(5,35)                 1.3523         estimate D2E/DX2                !
 ! R8    R(5,73)                 0.9532         estimate D2E/DX2                !
 ! R9    R(6,35)                 1.2199         estimate D2E/DX2                !
 ! R10   R(7,9)                  1.4057         estimate D2E/DX2                !
 ! R11   R(7,10)                 1.4726         estimate D2E/DX2                !
 ! R12   R(7,11)                 1.4102         estimate D2E/DX2                !
 ! R13   R(8,23)                 1.4341         estimate D2E/DX2                !
 ! R14   R(8,34)                 1.4441         estimate D2E/DX2                !
 ! R15   R(8,64)                 0.9996         estimate D2E/DX2                !
 ! R16   R(9,12)                 1.4971         estimate D2E/DX2                !
 ! R17   R(9,14)                 1.3963         estimate D2E/DX2                !
 ! R18   R(10,13)                1.5277         estimate D2E/DX2                !
 ! R19   R(10,42)                1.1096         estimate D2E/DX2                !
 ! R20   R(10,43)                1.114          estimate D2E/DX2                !
 ! R21   R(11,15)                1.3931         estimate D2E/DX2                !
 ! R22   R(11,18)                1.4604         estimate D2E/DX2                !
 ! R23   R(12,19)                1.5203         estimate D2E/DX2                !
 ! R24   R(12,20)                1.5214         estimate D2E/DX2                !
 ! R25   R(12,44)                1.1271         estimate D2E/DX2                !
 ! R26   R(13,16)                1.5355         estimate D2E/DX2                !
 ! R27   R(13,45)                1.1085         estimate D2E/DX2                !
 ! R28   R(13,46)                1.1156         estimate D2E/DX2                !
 ! R29   R(14,15)                1.4318         estimate D2E/DX2                !
 ! R30   R(14,23)                1.4805         estimate D2E/DX2                !
 ! R31   R(15,21)                1.4586         estimate D2E/DX2                !
 ! R32   R(16,17)                1.5417         estimate D2E/DX2                !
 ! R33   R(16,47)                1.119          estimate D2E/DX2                !
 ! R34   R(17,22)                1.5351         estimate D2E/DX2                !
 ! R35   R(17,48)                1.1093         estimate D2E/DX2                !
 ! R36   R(17,49)                1.1084         estimate D2E/DX2                !
 ! R37   R(18,25)                1.397          estimate D2E/DX2                !
 ! R38   R(18,26)                1.397          estimate D2E/DX2                !
 ! R39   R(19,50)                1.0976         estimate D2E/DX2                !
 ! R40   R(19,51)                1.0978         estimate D2E/DX2                !
 ! R41   R(19,52)                1.0989         estimate D2E/DX2                !
 ! R42   R(20,53)                1.0985         estimate D2E/DX2                !
 ! R43   R(20,54)                1.0971         estimate D2E/DX2                !
 ! R44   R(20,55)                1.0979         estimate D2E/DX2                !
 ! R45   R(21,27)                1.3968         estimate D2E/DX2                !
 ! R46   R(21,28)                1.3976         estimate D2E/DX2                !
 ! R47   R(22,24)                1.5401         estimate D2E/DX2                !
 ! R48   R(22,56)                1.1268         estimate D2E/DX2                !
 ! R49   R(24,35)                1.5042         estimate D2E/DX2                !
 ! R50   R(24,57)                1.1104         estimate D2E/DX2                !
 ! R51   R(24,58)                1.1089         estimate D2E/DX2                !
 ! R52   R(25,29)                1.3903         estimate D2E/DX2                !
 ! R53   R(25,59)                1.0971         estimate D2E/DX2                !
 ! R54   R(26,30)                1.3898         estimate D2E/DX2                !
 ! R55   R(26,60)                1.0964         estimate D2E/DX2                !
 ! R56   R(27,31)                1.3905         estimate D2E/DX2                !
 ! R57   R(27,62)                1.0965         estimate D2E/DX2                !
 ! R58   R(28,32)                1.3903         estimate D2E/DX2                !
 ! R59   R(28,63)                1.0954         estimate D2E/DX2                !
 ! R60   R(29,33)                1.4008         estimate D2E/DX2                !
 ! R61   R(29,65)                1.0977         estimate D2E/DX2                !
 ! R62   R(30,33)                1.4002         estimate D2E/DX2                !
 ! R63   R(30,66)                1.0956         estimate D2E/DX2                !
 ! R64   R(31,36)                1.3909         estimate D2E/DX2                !
 ! R65   R(31,68)                1.0957         estimate D2E/DX2                !
 ! R66   R(32,36)                1.3902         estimate D2E/DX2                !
 ! R67   R(32,69)                1.0953         estimate D2E/DX2                !
 ! R68   R(34,37)                1.3997         estimate D2E/DX2                !
 ! R69   R(34,38)                1.4012         estimate D2E/DX2                !
 ! R70   R(36,70)                1.0952         estimate D2E/DX2                !
 ! R71   R(37,39)                1.3896         estimate D2E/DX2                !
 ! R72   R(37,71)                1.0965         estimate D2E/DX2                !
 ! R73   R(38,40)                1.3882         estimate D2E/DX2                !
 ! R74   R(38,72)                1.0978         estimate D2E/DX2                !
 ! R75   R(39,41)                1.3912         estimate D2E/DX2                !
 ! R76   R(39,74)                1.0947         estimate D2E/DX2                !
 ! R77   R(40,41)                1.3913         estimate D2E/DX2                !
 ! R78   R(40,75)                1.0942         estimate D2E/DX2                !
 ! R79   R(41,76)                1.0942         estimate D2E/DX2                !
 ! A1    A(16,2,61)            106.6454         estimate D2E/DX2                !
 ! A2    A(22,3,67)            106.2189         estimate D2E/DX2                !
 ! A3    A(35,5,73)            110.0007         estimate D2E/DX2                !
 ! A4    A(9,7,10)             125.2594         estimate D2E/DX2                !
 ! A5    A(9,7,11)             109.6649         estimate D2E/DX2                !
 ! A6    A(10,7,11)            124.7756         estimate D2E/DX2                !
 ! A7    A(23,8,34)            122.386          estimate D2E/DX2                !
 ! A8    A(23,8,64)            112.5001         estimate D2E/DX2                !
 ! A9    A(34,8,64)            112.513          estimate D2E/DX2                !
 ! A10   A(7,9,12)             122.0294         estimate D2E/DX2                !
 ! A11   A(7,9,14)             106.8081         estimate D2E/DX2                !
 ! A12   A(12,9,14)            131.1589         estimate D2E/DX2                !
 ! A13   A(7,10,13)            112.2366         estimate D2E/DX2                !
 ! A14   A(7,10,42)            108.1199         estimate D2E/DX2                !
 ! A15   A(7,10,43)            108.0384         estimate D2E/DX2                !
 ! A16   A(13,10,42)           110.924          estimate D2E/DX2                !
 ! A17   A(13,10,43)           109.9365         estimate D2E/DX2                !
 ! A18   A(42,10,43)           107.4181         estimate D2E/DX2                !
 ! A19   A(7,11,15)            107.172          estimate D2E/DX2                !
 ! A20   A(7,11,18)            123.3358         estimate D2E/DX2                !
 ! A21   A(15,11,18)           129.4649         estimate D2E/DX2                !
 ! A22   A(9,12,19)            111.2422         estimate D2E/DX2                !
 ! A23   A(9,12,20)            110.8439         estimate D2E/DX2                !
 ! A24   A(9,12,44)            107.8995         estimate D2E/DX2                !
 ! A25   A(19,12,20)           111.1857         estimate D2E/DX2                !
 ! A26   A(19,12,44)           107.9907         estimate D2E/DX2                !
 ! A27   A(20,12,44)           107.5047         estimate D2E/DX2                !
 ! A28   A(10,13,16)           111.5832         estimate D2E/DX2                !
 ! A29   A(10,13,45)           110.3121         estimate D2E/DX2                !
 ! A30   A(10,13,46)           110.5055         estimate D2E/DX2                !
 ! A31   A(16,13,45)           110.5112         estimate D2E/DX2                !
 ! A32   A(16,13,46)           107.7557         estimate D2E/DX2                !
 ! A33   A(45,13,46)           105.9954         estimate D2E/DX2                !
 ! A34   A(9,14,15)            108.4513         estimate D2E/DX2                !
 ! A35   A(9,14,23)            127.5232         estimate D2E/DX2                !
 ! A36   A(15,14,23)           124.0234         estimate D2E/DX2                !
 ! A37   A(11,15,14)           107.9004         estimate D2E/DX2                !
 ! A38   A(11,15,21)           126.1332         estimate D2E/DX2                !
 ! A39   A(14,15,21)           125.963          estimate D2E/DX2                !
 ! A40   A(2,16,13)            106.887          estimate D2E/DX2                !
 ! A41   A(2,16,17)            110.8013         estimate D2E/DX2                !
 ! A42   A(2,16,47)            109.1646         estimate D2E/DX2                !
 ! A43   A(13,16,17)           110.7137         estimate D2E/DX2                !
 ! A44   A(13,16,47)           109.9288         estimate D2E/DX2                !
 ! A45   A(17,16,47)           109.3086         estimate D2E/DX2                !
 ! A46   A(16,17,22)           111.9708         estimate D2E/DX2                !
 ! A47   A(16,17,48)           109.8354         estimate D2E/DX2                !
 ! A48   A(16,17,49)           109.5983         estimate D2E/DX2                !
 ! A49   A(22,17,48)           109.9749         estimate D2E/DX2                !
 ! A50   A(22,17,49)           109.4688         estimate D2E/DX2                !
 ! A51   A(48,17,49)           105.8046         estimate D2E/DX2                !
 ! A52   A(11,18,25)           119.9982         estimate D2E/DX2                !
 ! A53   A(11,18,26)           119.7886         estimate D2E/DX2                !
 ! A54   A(25,18,26)           120.212          estimate D2E/DX2                !
 ! A55   A(12,19,50)           111.4418         estimate D2E/DX2                !
 ! A56   A(12,19,51)           110.7812         estimate D2E/DX2                !
 ! A57   A(12,19,52)           111.7349         estimate D2E/DX2                !
 ! A58   A(50,19,51)           107.7158         estimate D2E/DX2                !
 ! A59   A(50,19,52)           107.5905         estimate D2E/DX2                !
 ! A60   A(51,19,52)           107.3768         estimate D2E/DX2                !
 ! A61   A(12,20,53)           110.6468         estimate D2E/DX2                !
 ! A62   A(12,20,54)           111.3942         estimate D2E/DX2                !
 ! A63   A(12,20,55)           112.0518         estimate D2E/DX2                !
 ! A64   A(53,20,54)           107.5637         estimate D2E/DX2                !
 ! A65   A(53,20,55)           107.5187         estimate D2E/DX2                !
 ! A66   A(54,20,55)           107.456          estimate D2E/DX2                !
 ! A67   A(15,21,27)           120.2078         estimate D2E/DX2                !
 ! A68   A(15,21,28)           120.0261         estimate D2E/DX2                !
 ! A69   A(27,21,28)           119.7655         estimate D2E/DX2                !
 ! A70   A(3,22,17)            107.6902         estimate D2E/DX2                !
 ! A71   A(3,22,24)            110.6262         estimate D2E/DX2                !
 ! A72   A(3,22,56)            109.6781         estimate D2E/DX2                !
 ! A73   A(17,22,24)           109.7736         estimate D2E/DX2                !
 ! A74   A(17,22,56)           109.0007         estimate D2E/DX2                !
 ! A75   A(24,22,56)           110.0245         estimate D2E/DX2                !
 ! A76   A(4,23,8)             121.0639         estimate D2E/DX2                !
 ! A77   A(4,23,14)            124.9191         estimate D2E/DX2                !
 ! A78   A(8,23,14)            113.9795         estimate D2E/DX2                !
 ! A79   A(22,24,35)           112.8814         estimate D2E/DX2                !
 ! A80   A(22,24,57)           110.2714         estimate D2E/DX2                !
 ! A81   A(22,24,58)           109.8299         estimate D2E/DX2                !
 ! A82   A(35,24,57)           108.986          estimate D2E/DX2                !
 ! A83   A(35,24,58)           108.641          estimate D2E/DX2                !
 ! A84   A(57,24,58)           105.9839         estimate D2E/DX2                !
 ! A85   A(18,25,29)           120.3566         estimate D2E/DX2                !
 ! A86   A(18,25,59)           119.9956         estimate D2E/DX2                !
 ! A87   A(29,25,59)           119.6448         estimate D2E/DX2                !
 ! A88   A(18,26,30)           120.2338         estimate D2E/DX2                !
 ! A89   A(18,26,60)           119.9405         estimate D2E/DX2                !
 ! A90   A(30,26,60)           119.8232         estimate D2E/DX2                !
 ! A91   A(21,27,31)           119.9266         estimate D2E/DX2                !
 ! A92   A(21,27,62)           119.7958         estimate D2E/DX2                !
 ! A93   A(31,27,62)           120.2775         estimate D2E/DX2                !
 ! A94   A(21,28,32)           119.9542         estimate D2E/DX2                !
 ! A95   A(21,28,63)           119.684          estimate D2E/DX2                !
 ! A96   A(32,28,63)           120.3558         estimate D2E/DX2                !
 ! A97   A(25,29,33)           118.845          estimate D2E/DX2                !
 ! A98   A(25,29,65)           120.4159         estimate D2E/DX2                !
 ! A99   A(33,29,65)           120.7381         estimate D2E/DX2                !
 ! A100  A(26,30,33)           119.0092         estimate D2E/DX2                !
 ! A101  A(26,30,66)           120.4999         estimate D2E/DX2                !
 ! A102  A(33,30,66)           120.4909         estimate D2E/DX2                !
 ! A103  A(27,31,36)           120.1856         estimate D2E/DX2                !
 ! A104  A(27,31,68)           119.7486         estimate D2E/DX2                !
 ! A105  A(36,31,68)           120.0657         estimate D2E/DX2                !
 ! A106  A(28,32,36)           120.1625         estimate D2E/DX2                !
 ! A107  A(28,32,69)           119.8225         estimate D2E/DX2                !
 ! A108  A(36,32,69)           120.0146         estimate D2E/DX2                !
 ! A109  A(1,33,29)            119.3161         estimate D2E/DX2                !
 ! A110  A(1,33,30)            119.3501         estimate D2E/DX2                !
 ! A111  A(29,33,30)           121.3338         estimate D2E/DX2                !
 ! A112  A(8,34,37)            120.4694         estimate D2E/DX2                !
 ! A113  A(8,34,38)            119.4617         estimate D2E/DX2                !
 ! A114  A(37,34,38)           119.9358         estimate D2E/DX2                !
 ! A115  A(5,35,6)             115.6189         estimate D2E/DX2                !
 ! A116  A(5,35,24)            114.7043         estimate D2E/DX2                !
 ! A117  A(6,35,24)            129.6762         estimate D2E/DX2                !
 ! A118  A(31,36,32)           120.0048         estimate D2E/DX2                !
 ! A119  A(31,36,70)           119.9523         estimate D2E/DX2                !
 ! A120  A(32,36,70)           120.0427         estimate D2E/DX2                !
 ! A121  A(34,37,39)           119.5832         estimate D2E/DX2                !
 ! A122  A(34,37,71)           120.6007         estimate D2E/DX2                !
 ! A123  A(39,37,71)           119.8102         estimate D2E/DX2                !
 ! A124  A(34,38,40)           119.7922         estimate D2E/DX2                !
 ! A125  A(34,38,72)           120.8972         estimate D2E/DX2                !
 ! A126  A(40,38,72)           119.3106         estimate D2E/DX2                !
 ! A127  A(37,39,41)           120.4966         estimate D2E/DX2                !
 ! A128  A(37,39,74)           119.6106         estimate D2E/DX2                !
 ! A129  A(41,39,74)           119.8928         estimate D2E/DX2                !
 ! A130  A(38,40,41)           120.3113         estimate D2E/DX2                !
 ! A131  A(38,40,75)           119.7783         estimate D2E/DX2                !
 ! A132  A(41,40,75)           119.91           estimate D2E/DX2                !
 ! A133  A(39,41,40)           119.879          estimate D2E/DX2                !
 ! A134  A(39,41,76)           120.085          estimate D2E/DX2                !
 ! A135  A(40,41,76)           120.036          estimate D2E/DX2                !
 ! D1    D(61,2,16,13)        -176.434          estimate D2E/DX2                !
 ! D2    D(61,2,16,17)          62.8531         estimate D2E/DX2                !
 ! D3    D(61,2,16,47)         -57.5774         estimate D2E/DX2                !
 ! D4    D(67,3,22,17)        -157.4009         estimate D2E/DX2                !
 ! D5    D(67,3,22,24)          82.6342         estimate D2E/DX2                !
 ! D6    D(67,3,22,56)         -38.9113         estimate D2E/DX2                !
 ! D7    D(73,5,35,6)            0.5992         estimate D2E/DX2                !
 ! D8    D(73,5,35,24)        -179.6589         estimate D2E/DX2                !
 ! D9    D(10,7,9,12)            6.2135         estimate D2E/DX2                !
 ! D10   D(10,7,9,14)         -174.4103         estimate D2E/DX2                !
 ! D11   D(11,7,9,12)         -179.8442         estimate D2E/DX2                !
 ! D12   D(11,7,9,14)           -0.4679         estimate D2E/DX2                !
 ! D13   D(9,7,10,13)           95.5378         estimate D2E/DX2                !
 ! D14   D(9,7,10,42)         -141.7961         estimate D2E/DX2                !
 ! D15   D(9,7,10,43)          -25.8319         estimate D2E/DX2                !
 ! D16   D(11,7,10,13)         -77.5133         estimate D2E/DX2                !
 ! D17   D(11,7,10,42)          45.1527         estimate D2E/DX2                !
 ! D18   D(11,7,10,43)         161.117          estimate D2E/DX2                !
 ! D19   D(9,7,11,15)            0.6067         estimate D2E/DX2                !
 ! D20   D(9,7,11,18)          178.8673         estimate D2E/DX2                !
 ! D21   D(10,7,11,15)         174.5849         estimate D2E/DX2                !
 ! D22   D(10,7,11,18)          -7.1545         estimate D2E/DX2                !
 ! D23   D(34,8,23,4)           14.5749         estimate D2E/DX2                !
 ! D24   D(34,8,23,14)        -167.5489         estimate D2E/DX2                !
 ! D25   D(64,8,23,4)          153.4698         estimate D2E/DX2                !
 ! D26   D(64,8,23,14)         -28.654          estimate D2E/DX2                !
 ! D27   D(23,8,34,37)         -56.8283         estimate D2E/DX2                !
 ! D28   D(23,8,34,38)         127.3695         estimate D2E/DX2                !
 ! D29   D(64,8,34,37)         164.2814         estimate D2E/DX2                !
 ! D30   D(64,8,34,38)         -11.5207         estimate D2E/DX2                !
 ! D31   D(7,9,12,19)         -127.2004         estimate D2E/DX2                !
 ! D32   D(7,9,12,20)          108.5436         estimate D2E/DX2                !
 ! D33   D(7,9,12,44)           -8.9204         estimate D2E/DX2                !
 ! D34   D(14,9,12,19)          53.5927         estimate D2E/DX2                !
 ! D35   D(14,9,12,20)         -70.6632         estimate D2E/DX2                !
 ! D36   D(14,9,12,44)         171.8728         estimate D2E/DX2                !
 ! D37   D(7,9,14,15)            0.1508         estimate D2E/DX2                !
 ! D38   D(7,9,14,23)          179.6286         estimate D2E/DX2                !
 ! D39   D(12,9,14,15)         179.4484         estimate D2E/DX2                !
 ! D40   D(12,9,14,23)          -1.0738         estimate D2E/DX2                !
 ! D41   D(7,10,13,16)         165.0468         estimate D2E/DX2                !
 ! D42   D(7,10,13,45)         -71.7079         estimate D2E/DX2                !
 ! D43   D(7,10,13,46)          45.1734         estimate D2E/DX2                !
 ! D44   D(42,10,13,16)         43.9804         estimate D2E/DX2                !
 ! D45   D(42,10,13,45)        167.2257         estimate D2E/DX2                !
 ! D46   D(42,10,13,46)        -75.8931         estimate D2E/DX2                !
 ! D47   D(43,10,13,16)        -74.6782         estimate D2E/DX2                !
 ! D48   D(43,10,13,45)         48.5671         estimate D2E/DX2                !
 ! D49   D(43,10,13,46)        165.4484         estimate D2E/DX2                !
 ! D50   D(7,11,15,14)          -0.5            estimate D2E/DX2                !
 ! D51   D(7,11,15,21)         178.8515         estimate D2E/DX2                !
 ! D52   D(18,11,15,14)       -178.6176         estimate D2E/DX2                !
 ! D53   D(18,11,15,21)          0.7339         estimate D2E/DX2                !
 ! D54   D(7,11,18,25)          94.3482         estimate D2E/DX2                !
 ! D55   D(7,11,18,26)         -86.0545         estimate D2E/DX2                !
 ! D56   D(15,11,18,25)        -87.8046         estimate D2E/DX2                !
 ! D57   D(15,11,18,26)         91.7927         estimate D2E/DX2                !
 ! D58   D(9,12,19,50)          57.6806         estimate D2E/DX2                !
 ! D59   D(9,12,19,51)         177.5953         estimate D2E/DX2                !
 ! D60   D(9,12,19,52)         -62.7238         estimate D2E/DX2                !
 ! D61   D(20,12,19,50)       -178.257          estimate D2E/DX2                !
 ! D62   D(20,12,19,51)        -58.3422         estimate D2E/DX2                !
 ! D63   D(20,12,19,52)         61.3386         estimate D2E/DX2                !
 ! D64   D(44,12,19,50)        -60.5445         estimate D2E/DX2                !
 ! D65   D(44,12,19,51)         59.3703         estimate D2E/DX2                !
 ! D66   D(44,12,19,52)        179.0511         estimate D2E/DX2                !
 ! D67   D(9,12,20,53)        -176.7159         estimate D2E/DX2                !
 ! D68   D(9,12,20,54)         -57.1142         estimate D2E/DX2                !
 ! D69   D(9,12,20,55)          63.3037         estimate D2E/DX2                !
 ! D70   D(19,12,20,53)         58.996          estimate D2E/DX2                !
 ! D71   D(19,12,20,54)        178.5977         estimate D2E/DX2                !
 ! D72   D(19,12,20,55)        -60.9844         estimate D2E/DX2                !
 ! D73   D(44,12,20,53)        -59.0107         estimate D2E/DX2                !
 ! D74   D(44,12,20,54)         60.591          estimate D2E/DX2                !
 ! D75   D(44,12,20,55)       -178.9912         estimate D2E/DX2                !
 ! D76   D(10,13,16,2)          73.3506         estimate D2E/DX2                !
 ! D77   D(10,13,16,17)       -165.8806         estimate D2E/DX2                !
 ! D78   D(10,13,16,47)        -45.0084         estimate D2E/DX2                !
 ! D79   D(45,13,16,2)         -49.7814         estimate D2E/DX2                !
 ! D80   D(45,13,16,17)         70.9873         estimate D2E/DX2                !
 ! D81   D(45,13,16,47)       -168.1405         estimate D2E/DX2                !
 ! D82   D(46,13,16,2)        -165.1678         estimate D2E/DX2                !
 ! D83   D(46,13,16,17)        -44.3991         estimate D2E/DX2                !
 ! D84   D(46,13,16,47)         76.4731         estimate D2E/DX2                !
 ! D85   D(9,14,15,11)           0.2204         estimate D2E/DX2                !
 ! D86   D(9,14,15,21)        -179.1325         estimate D2E/DX2                !
 ! D87   D(23,14,15,11)       -179.2799         estimate D2E/DX2                !
 ! D88   D(23,14,15,21)          1.3672         estimate D2E/DX2                !
 ! D89   D(9,14,23,4)           62.4148         estimate D2E/DX2                !
 ! D90   D(9,14,23,8)         -115.3665         estimate D2E/DX2                !
 ! D91   D(15,14,23,4)        -118.1829         estimate D2E/DX2                !
 ! D92   D(15,14,23,8)          64.0358         estimate D2E/DX2                !
 ! D93   D(11,15,21,27)       -114.5065         estimate D2E/DX2                !
 ! D94   D(11,15,21,28)         65.1928         estimate D2E/DX2                !
 ! D95   D(14,15,21,27)         64.731          estimate D2E/DX2                !
 ! D96   D(14,15,21,28)       -115.5697         estimate D2E/DX2                !
 ! D97   D(2,16,17,22)        -176.7693         estimate D2E/DX2                !
 ! D98   D(2,16,17,48)         -54.2814         estimate D2E/DX2                !
 ! D99   D(2,16,17,49)          61.5532         estimate D2E/DX2                !
 ! D100  D(13,16,17,22)         64.815          estimate D2E/DX2                !
 ! D101  D(13,16,17,48)       -172.6972         estimate D2E/DX2                !
 ! D102  D(13,16,17,49)        -56.8626         estimate D2E/DX2                !
 ! D103  D(47,16,17,22)        -56.4244         estimate D2E/DX2                !
 ! D104  D(47,16,17,48)         66.0634         estimate D2E/DX2                !
 ! D105  D(47,16,17,49)       -178.102          estimate D2E/DX2                !
 ! D106  D(16,17,22,3)          71.0366         estimate D2E/DX2                !
 ! D107  D(16,17,22,24)       -168.4603         estimate D2E/DX2                !
 ! D108  D(16,17,22,56)        -47.8871         estimate D2E/DX2                !
 ! D109  D(48,17,22,3)         -51.3717         estimate D2E/DX2                !
 ! D110  D(48,17,22,24)         69.1314         estimate D2E/DX2                !
 ! D111  D(48,17,22,56)       -170.2954         estimate D2E/DX2                !
 ! D112  D(49,17,22,3)        -167.2115         estimate D2E/DX2                !
 ! D113  D(49,17,22,24)        -46.7084         estimate D2E/DX2                !
 ! D114  D(49,17,22,56)         73.8648         estimate D2E/DX2                !
 ! D115  D(11,18,25,29)       -179.2616         estimate D2E/DX2                !
 ! D116  D(11,18,25,59)          1.3742         estimate D2E/DX2                !
 ! D117  D(26,18,25,29)          1.1428         estimate D2E/DX2                !
 ! D118  D(26,18,25,59)       -178.2214         estimate D2E/DX2                !
 ! D119  D(11,18,26,30)        179.7928         estimate D2E/DX2                !
 ! D120  D(11,18,26,60)         -0.7799         estimate D2E/DX2                !
 ! D121  D(25,18,26,30)         -0.6108         estimate D2E/DX2                !
 ! D122  D(25,18,26,60)        178.8165         estimate D2E/DX2                !
 ! D123  D(15,21,27,31)        179.9424         estimate D2E/DX2                !
 ! D124  D(15,21,27,62)         -0.1992         estimate D2E/DX2                !
 ! D125  D(28,21,27,31)          0.2423         estimate D2E/DX2                !
 ! D126  D(28,21,27,62)       -179.8992         estimate D2E/DX2                !
 ! D127  D(15,21,28,32)        179.9809         estimate D2E/DX2                !
 ! D128  D(15,21,28,63)         -0.9073         estimate D2E/DX2                !
 ! D129  D(27,21,28,32)         -0.3185         estimate D2E/DX2                !
 ! D130  D(27,21,28,63)        178.7933         estimate D2E/DX2                !
 ! D131  D(3,22,24,35)         -70.6358         estimate D2E/DX2                !
 ! D132  D(3,22,24,57)          51.5262         estimate D2E/DX2                !
 ! D133  D(3,22,24,58)         167.9651         estimate D2E/DX2                !
 ! D134  D(17,22,24,35)        170.6565         estimate D2E/DX2                !
 ! D135  D(17,22,24,57)        -67.1815         estimate D2E/DX2                !
 ! D136  D(17,22,24,58)         49.2573         estimate D2E/DX2                !
 ! D137  D(56,22,24,35)         50.7051         estimate D2E/DX2                !
 ! D138  D(56,22,24,57)        172.8671         estimate D2E/DX2                !
 ! D139  D(56,22,24,58)        -70.694          estimate D2E/DX2                !
 ! D140  D(22,24,35,5)         179.9132         estimate D2E/DX2                !
 ! D141  D(22,24,35,6)          -0.3891         estimate D2E/DX2                !
 ! D142  D(57,24,35,5)          57.0322         estimate D2E/DX2                !
 ! D143  D(57,24,35,6)        -123.2701         estimate D2E/DX2                !
 ! D144  D(58,24,35,5)         -58.0169         estimate D2E/DX2                !
 ! D145  D(58,24,35,6)         121.6808         estimate D2E/DX2                !
 ! D146  D(18,25,29,33)         -0.8079         estimate D2E/DX2                !
 ! D147  D(18,25,29,65)        179.5576         estimate D2E/DX2                !
 ! D148  D(59,25,29,33)        178.5585         estimate D2E/DX2                !
 ! D149  D(59,25,29,65)         -1.076          estimate D2E/DX2                !
 ! D150  D(18,26,30,33)         -0.234          estimate D2E/DX2                !
 ! D151  D(18,26,30,66)        179.7272         estimate D2E/DX2                !
 ! D152  D(60,26,30,33)       -179.6619         estimate D2E/DX2                !
 ! D153  D(60,26,30,66)          0.2993         estimate D2E/DX2                !
 ! D154  D(21,27,31,36)          0.0066         estimate D2E/DX2                !
 ! D155  D(21,27,31,68)        179.9618         estimate D2E/DX2                !
 ! D156  D(62,27,31,36)       -179.8512         estimate D2E/DX2                !
 ! D157  D(62,27,31,68)          0.1041         estimate D2E/DX2                !
 ! D158  D(21,28,32,36)          0.1458         estimate D2E/DX2                !
 ! D159  D(21,28,32,69)        179.922          estimate D2E/DX2                !
 ! D160  D(63,28,32,36)       -178.9599         estimate D2E/DX2                !
 ! D161  D(63,28,32,69)          0.8162         estimate D2E/DX2                !
 ! D162  D(25,29,33,1)         179.9922         estimate D2E/DX2                !
 ! D163  D(25,29,33,30)         -0.0461         estimate D2E/DX2                !
 ! D164  D(65,29,33,1)          -0.3745         estimate D2E/DX2                !
 ! D165  D(65,29,33,30)        179.5872         estimate D2E/DX2                !
 ! D166  D(26,30,33,1)        -179.4722         estimate D2E/DX2                !
 ! D167  D(26,30,33,29)          0.5661         estimate D2E/DX2                !
 ! D168  D(66,30,33,1)           0.5666         estimate D2E/DX2                !
 ! D169  D(66,30,33,29)       -179.3951         estimate D2E/DX2                !
 ! D170  D(27,31,36,32)         -0.1804         estimate D2E/DX2                !
 ! D171  D(27,31,36,70)        179.9803         estimate D2E/DX2                !
 ! D172  D(68,31,36,32)        179.8645         estimate D2E/DX2                !
 ! D173  D(68,31,36,70)          0.0252         estimate D2E/DX2                !
 ! D174  D(28,32,36,31)          0.1039         estimate D2E/DX2                !
 ! D175  D(28,32,36,70)        179.943          estimate D2E/DX2                !
 ! D176  D(69,32,36,31)       -179.6718         estimate D2E/DX2                !
 ! D177  D(69,32,36,70)          0.1673         estimate D2E/DX2                !
 ! D178  D(8,34,37,39)        -176.2522         estimate D2E/DX2                !
 ! D179  D(8,34,37,71)           4.6286         estimate D2E/DX2                !
 ! D180  D(38,34,37,39)         -0.4699         estimate D2E/DX2                !
 ! D181  D(38,34,37,71)       -179.5891         estimate D2E/DX2                !
 ! D182  D(8,34,38,40)         175.9624         estimate D2E/DX2                !
 ! D183  D(8,34,38,72)          -4.0234         estimate D2E/DX2                !
 ! D184  D(37,34,38,40)          0.1376         estimate D2E/DX2                !
 ! D185  D(37,34,38,72)       -179.8483         estimate D2E/DX2                !
 ! D186  D(34,37,39,41)          0.4573         estimate D2E/DX2                !
 ! D187  D(34,37,39,74)       -179.5879         estimate D2E/DX2                !
 ! D188  D(71,37,39,41)        179.5836         estimate D2E/DX2                !
 ! D189  D(71,37,39,74)         -0.4616         estimate D2E/DX2                !
 ! D190  D(34,38,40,41)          0.2121         estimate D2E/DX2                !
 ! D191  D(34,38,40,75)        179.9842         estimate D2E/DX2                !
 ! D192  D(72,38,40,41)       -179.8019         estimate D2E/DX2                !
 ! D193  D(72,38,40,75)         -0.0297         estimate D2E/DX2                !
 ! D194  D(37,39,41,40)         -0.1102         estimate D2E/DX2                !
 ! D195  D(37,39,41,76)        179.8666         estimate D2E/DX2                !
 ! D196  D(74,39,41,40)        179.9351         estimate D2E/DX2                !
 ! D197  D(74,39,41,76)         -0.088          estimate D2E/DX2                !
 ! D198  D(38,40,41,39)         -0.2275         estimate D2E/DX2                !
 ! D199  D(38,40,41,76)        179.7957         estimate D2E/DX2                !
 ! D200  D(75,40,41,39)       -179.9994         estimate D2E/DX2                !
 ! D201  D(75,40,41,76)          0.0238         estimate D2E/DX2                !
 --------------------------------------------------------------------------------
 Trust Radius=3.00D-01 FncErr=1.00D-07 GrdErr=1.00D-06
 Number of steps in this run=    425 maximum allowed number of steps=    456.
 GradGradGradGradGradGradGradGradGradGradGradGradGradGradGradGradGradGrad

 Stoichiometry    C33H35FN2O5
 Framework group  C1[X(C33H35FN2O5)]
 Deg. of freedom   222
 Full point group                 C1      NOp   1
 Largest Abelian subgroup         C1      NOp   1
 Largest concise Abelian subgroup C1      NOp   1
                         Standard orientation:                         
 ---------------------------------------------------------------------
 Center     Atomic      Atomic             Coordinates (Angstroms)
 Number     Number       Type             X           Y           Z
 ---------------------------------------------------------------------
      1          9           0        4.427047   -3.470991   -2.115037
      2          8           0        3.676975    3.991002   -0.704037
      3          8           0        5.548011    0.281020    0.159963
      4          8           0       -4.227000    1.425925   -1.132037
      5          8           0        5.904023   -0.946976    4.245963
      6          8           0        4.883030   -1.734986    2.490963
      7          7           0        0.209001    1.331968   -1.227037
      8          7           0       -3.706991    0.443930    0.896963
      9          6           0       -1.046005    1.906956   -0.962037
     10          6           0        1.464993    2.078981   -1.409037
     11          6           0        0.112014   -0.073033   -1.155037
     12          6           0       -1.258020    3.388954   -0.970037
     13          6           0        2.276992    2.167988   -0.118037
     14          6           0       -1.932995    0.852947   -0.734037
     15          6           0       -1.213983   -0.379046   -0.857037
     16          6           0        3.721988    2.611003   -0.389037
     17          6           0        4.609990    2.360011    0.845963
     18          6           0        1.238023   -0.969022   -1.404037
     19          6           0       -1.911024    3.858948    0.319963
     20          6           0       -2.071024    3.812946   -2.184037
     21          6           0       -1.775970   -1.717051   -0.711037
     22          6           0        4.742005    0.864012    1.163963
     23          6           0       -3.373996    0.941933   -0.406037
     24          6           0        5.386007    0.681019    2.550963
     25          6           0        2.013027   -1.430014   -0.337037
     26          6           0        1.531027   -1.369019   -2.710037
     27          6           0       -2.732965   -2.180060   -1.617037
     28          6           0       -1.352962   -2.543047    0.333963
     29          6           0        3.096036   -2.271004   -0.567037
     30          6           0        2.603035   -2.218008   -2.958037
     31          6           0       -3.263953   -3.457066   -1.473037
     32          6           0       -1.889949   -3.818052    0.471963
     33          6           0        3.383039   -2.659001   -1.882037
     34          6           0       -5.069988    0.197917    1.305963
     35          6           0        5.346021   -0.743982    3.030963
     36          6           0       -2.844945   -4.275062   -0.429037
     37          6           0       -6.020998    1.223907    1.259963
     38          6           0       -5.415976   -1.053087    1.833963
     39          6           0       -7.306996    0.988895    1.730963
     40          6           0       -6.702974   -1.270099    2.306963
     41          6           0       -7.650984   -0.253108    2.254963
     42          1           0        2.048998    1.581986   -2.211037
     43          1           0        1.208983    3.101978   -1.768037
     44          1           0       -0.248024    3.882964   -1.049037
     45          1           0        1.786986    2.857984    0.597963
     46          1           0        2.315002    1.174989    0.388963
     47          1           0        4.135994    2.048007   -1.263037
     48          1           0        5.613986    2.803021    0.683963
     49          1           0        4.184985    2.888007    1.722963
     50          1           0       -1.312021    3.581953    1.196963
     51          1           0       -2.024035    4.950946    0.323963
     52          1           0       -2.912020    3.424938    0.450963
     53          1           0       -2.175034    4.905945   -2.218037
     54          1           0       -1.590021    3.496951   -3.118037
     55          1           0       -3.082020    3.384936   -2.173037
     56          1           0        3.718010    0.394003    1.148963
     57          1           0        6.441003    1.027029    2.533963
     58          1           0        4.867001    1.320014    3.293963
     59          1           0        1.762025   -1.137017    0.689963
     60          1           0        0.908023   -1.020025   -3.542037
     61          1           0        4.561972    4.248011   -0.925037
     62          1           0       -3.063972   -1.533064   -2.438037
     63          1           0       -0.587965   -2.186040    1.031963
     64          1           0       -3.079984   -0.271064    1.204963
     65          1           0        3.710039   -2.627998    0.269963
     66          1           0        2.834038   -2.538006   -3.980037
     67          1           0        5.336020   -0.644982    0.153963
     68          1           0       -4.014949   -3.817073   -2.185037
     69          1           0       -1.555943   -4.464049    1.290963
     70          1           0       -3.265935   -5.280066   -0.319037
     71          1           0       -5.764008    2.204910    0.842963
     72          1           0       -4.681968   -1.868079    1.879963
     73          1           0        5.847032   -1.868977    4.480963
     74          1           0       -8.053004    1.788888    1.688963
     75          1           0       -6.972965   -2.247102    2.718963
     76          1           0       -8.664982   -0.430118    2.625963
 ---------------------------------------------------------------------
 Rotational constants (GHZ):      0.1158732      0.0489747      0.0440413
 Standard basis: 6-31G++(d,p) (6D, 7F)
 There are   790 symmetry adapted cartesian basis functions of A   symmetry.
 There are   790 symmetry adapted basis functions of A   symmetry.
   790 basis functions,  1393 primitive gaussians,   790 cartesian basis functions
   148 alpha electrons      148 beta electrons
       nuclear repulsion energy      4761.3680331088 Hartrees.
 NAtoms=   76 NActive=   76 NUniq=   76 SFac= 1.00D+00 NAtFMM=   60 NAOKFM=T Big=T
 Integral buffers will be    262144 words long.
 Raffenetti 2 integral format.
 Two-electron integral symmetry is turned on.
 One-electron integrals computed using PRISM.
 NBasis=   790 RedAO= T EigKep=  3.61D-04  NBF=   790
 NBsUse=   790 1.00D-06 EigRej= -1.00D+00 NBFU=   790
 ExpMin= 1.61D-01 ExpMax= 7.00D+03 ExpMxC= 1.05D+03 IAcc=1 IRadAn=         1 AccDes= 0.00D+00
 Harris functional with IExCor=  402 and IRadAn=       1 diagonalized for initial guess.
 HarFok:  IExCor=  402 AccDes= 0.00D+00 IRadAn=         1 IDoV= 1 UseB2=F ITyADJ=14
 ICtDFT=  3500011 ScaDFX=  1.000000  1.000000  1.000000  1.000000
 FoFCou: FMM=F IPFlag=           0 FMFlag=      100000 FMFlg1=        2001
         NFxFlg=           0 DoJE=T BraDBF=F KetDBF=T FulRan=T
         wScrn=  0.000000 ICntrl=     500 IOpCl=  0 I1Cent=   200000004 NGrid=           0
         NMat0=    1 NMatS0=      1 NMatT0=    0 NMatD0=    1 NMtDS0=    0 NMtDT0=    0
 Petite list used in FoFCou.
 Requested convergence on RMS density matrix=1.00D-08 within 128 cycles.
 Requested convergence on MAX density matrix=1.00D-06.
 Requested convergence on             energy=1.00D-06.
 No special actions if energy rises.
 Integral accuracy reduced to 1.0D-05 until final iterations.
 Initial convergence to 1.0D-05 achieved.  Increase integral accuracy.
 SCF Done:  E(RB3LYP) =  -1864.11917294     A.U. after   16 cycles
            NFock= 16  Conv=0.33D-08     -V/T= 2.0094

 **********************************************************************

            Population analysis using the SCF density.

 **********************************************************************

 Orbital symmetries:
       Occupied  (A) (A) (A) (A) (A) (A) (A) (A) (A) (A) (A) (A)
                 (A) (A) (A) (A) (A) (A) (A) (A) (A) (A) (A) (A)
                 (A) (A) (A) (A) (A) (A) (A) (A) (A) (A) (A) (A)
                 (A) (A) (A) (A) (A) (A) (A) (A) (A) (A) (A) (A)
                 (A) (A) (A) (A) (A) (A) (A) (A) (A) (A) (A) (A)
                 (A) (A) (A) (A) (A) (A) (A) (A) (A) (A) (A) (A)
                 (A) (A) (A) (A) (A) (A) (A) (A) (A) (A) (A) (A)
                 (A) (A) (A) (A) (A) (A) (A) (A) (A) (A) (A) (A)
                 (A) (A) (A) (A) (A) (A) (A) (A) (A) (A) (A) (A)
                 (A) (A) (A) (A) (A) (A) (A) (A) (A) (A) (A) (A)
                 (A) (A) (A) (A) (A) (A) (A) (A) (A) (A) (A) (A)
                 (A) (A) (A) (A) (A) (A) (A) (A) (A) (A) (A) (A)
                 (A) (A) (A) (A)
       Virtual   (A) (A) (A) (A) (A) (A) (A) (A) (A) (A) (A) (A)
                 (A) (A) (A) (A) (A) (A) (A) (A) (A) (A) (A) (A)
                 (A) (A) (A) (A) (A) (A) (A) (A) (A) (A) (A) (A)
                 (A) (A) (A) (A) (A) (A) (A) (A) (A) (A) (A) (A)
                 (A) (A) (A) (A) (A) (A) (A) (A) (A) (A) (A) (A)
                 (A) (A) (A) (A) (A) (A) (A) (A) (A) (A) (A) (A)
                 (A) (A) (A) (A) (A) (A) (A) (A) (A) (A) (A) (A)
                 (A) (A) (A) (A) (A) (A) (A) (A) (A) (A) (A) (A)
                 (A) (A) (A) (A) (A) (A) (A) (A) (A) (A) (A) (A)
                 (A) (A) (A) (A) (A) (A) (A) (A) (A) (A) (A) (A)
                 (A) (A) (A) (A) (A) (A) (A) (A) (A) (A) (A) (A)
                 (A) (A) (A) (A) (A) (A) (A) (A) (A) (A) (A) (A)
                 (A) (A) (A) (A) (A) (A) (A) (A) (A) (A) (A) (A)
                 (A) (A) (A) (A) (A) (A) (A) (A) (A) (A) (A) (A)
                 (A) (A) (A) (A) (A) (A) (A) (A) (A) (A) (A) (A)
                 (A) (A) (A) (A) (A) (A) (A) (A) (A) (A) (A) (A)
                 (A) (A) (A) (A) (A) (A) (A) (A) (A) (A) (A) (A)
                 (A) (A) (A) (A) (A) (A) (A) (A) (A) (A) (A) (A)
                 (A) (A) (A) (A) (A) (A) (A) (A) (A) (A) (A) (A)
                 (A) (A) (A) (A) (A) (A) (A) (A) (A) (A) (A) (A)
                 (A) (A) (A) (A) (A) (A) (A) (A) (A) (A) (A) (A)
                 (A) (A) (A) (A) (A) (A) (A) (A) (A) (A) (A) (A)
                 (A) (A) (A) (A) (A) (A) (A) (A) (A) (A) (A) (A)
                 (A) (A) (A) (A) (A) (A) (A) (A) (A) (A) (A) (A)
                 (A) (A) (A) (A) (A) (A) (A) (A) (A) (A) (A) (A)
                 (A) (A) (A) (A) (A) (A) (A) (A) (A) (A) (A) (A)
                 (A) (A) (A) (A) (A) (A) (A) (A) (A) (A) (A) (A)
                 (A) (A) (A) (A) (A) (A) (A) (A) (A) (A) (A) (A)
                 (A) (A) (A) (A) (A) (A) (A) (A) (A) (A) (A) (A)
                 (A) (A) (A) (A) (A) (A) (A) (A) (A) (A) (A) (A)
                 (A) (A) (A) (A) (A) (A) (A) (A) (A) (A) (A) (A)
                 (A) (A) (A) (A) (A) (A) (A) (A) (A) (A) (A) (A)
                 (A) (A) (A) (A) (A) (A) (A) (A) (A) (A) (A) (A)
                 (A) (A) (A) (A) (A) (A) (A) (A) (A) (A) (A) (A)
                 (A) (A) (A) (A) (A) (A) (A) (A) (A) (A) (A) (A)
                 (A) (A) (A) (A) (A) (A) (A) (A) (A) (A) (A) (A)
                 (A) (A) (A) (A) (A) (A) (A) (A) (A) (A) (A) (A)
                 (A) (A) (A) (A) (A) (A) (A) (A) (A) (A) (A) (A)
                 (A) (A) (A) (A) (A) (A) (A) (A) (A) (A) (A) (A)
                 (A) (A) (A) (A) (A) (A) (A) (A) (A) (A) (A) (A)
                 (A) (A) (A) (A) (A) (A) (A) (A) (A) (A) (A) (A)
                 (A) (A) (A) (A) (A) (A) (A) (A) (A) (A) (A) (A)
                 (A) (A) (A) (A) (A) (A) (A) (A) (A) (A) (A) (A)
                 (A) (A) (A) (A) (A) (A) (A) (A) (A) (A) (A) (A)
                 (A) (A) (A) (A) (A) (A) (A) (A) (A) (A) (A) (A)
                 (A) (A) (A) (A) (A) (A) (A) (A) (A) (A) (A) (A)
                 (A) (A) (A) (A) (A) (A) (A) (A) (A) (A) (A) (A)
                 (A) (A) (A) (A) (A) (A) (A) (A) (A) (A) (A) (A)
                 (A) (A) (A) (A) (A) (A) (A) (A) (A) (A) (A) (A)
                 (A) (A) (A) (A) (A) (A) (A) (A) (A) (A) (A) (A)
                 (A) (A) (A) (A) (A) (A) (A) (A) (A) (A) (A) (A)
                 (A) (A) (A) (A) (A) (A) (A) (A) (A) (A) (A) (A)
                 (A) (A) (A) (A) (A) (A) (A) (A) (A) (A) (A) (A)
                 (A) (A) (A) (A) (A) (A)
 The electronic state is 1-A.
 Alpha  occ. eigenvalues --  -24.71176 -19.20175 -19.15625 -19.15271 -19.15048
 Alpha  occ. eigenvalues --  -19.11291 -14.38390 -14.34968 -10.34037 -10.28568
 Alpha  occ. eigenvalues --  -10.28242 -10.25784 -10.24627 -10.23415 -10.22182
 Alpha  occ. eigenvalues --  -10.22007 -10.21480 -10.21061 -10.20775 -10.20684
 Alpha  occ. eigenvalues --  -10.20631 -10.20495 -10.20361 -10.19766 -10.19698
 Alpha  occ. eigenvalues --  -10.19596 -10.19434 -10.18985 -10.18851 -10.18837
 Alpha  occ. eigenvalues --  -10.18782 -10.18568 -10.18214 -10.18132 -10.18032
 Alpha  occ. eigenvalues --  -10.17951 -10.17688 -10.17667 -10.17623 -10.17032
 Alpha  occ. eigenvalues --  -10.16259  -1.22496  -1.12254  -1.03784  -1.03277
 Alpha  occ. eigenvalues --   -1.02711  -1.02063  -0.97379  -0.91137  -0.87138
 Alpha  occ. eigenvalues --   -0.85833  -0.83503  -0.82282  -0.81034  -0.80621
 Alpha  occ. eigenvalues --   -0.78142  -0.76999  -0.76401  -0.75369  -0.74298
 Alpha  occ. eigenvalues --   -0.73651  -0.73578  -0.72084  -0.69806  -0.67641
 Alpha  occ. eigenvalues --   -0.67490  -0.64501  -0.63255  -0.62905  -0.62355
 Alpha  occ. eigenvalues --   -0.60677  -0.60194  -0.60112  -0.59775  -0.58400
 Alpha  occ. eigenvalues --   -0.58148  -0.56839  -0.55039  -0.54649  -0.54027
 Alpha  occ. eigenvalues --   -0.53187  -0.52837  -0.51749  -0.51242  -0.51115
 Alpha  occ. eigenvalues --   -0.49892  -0.49717  -0.48906  -0.48051  -0.47878
 Alpha  occ. eigenvalues --   -0.46965  -0.46544  -0.46205  -0.46013  -0.45446
 Alpha  occ. eigenvalues --   -0.45019  -0.44645  -0.44050  -0.43690  -0.43574
 Alpha  occ. eigenvalues --   -0.43447  -0.43233  -0.42522  -0.42211  -0.41942
 Alpha  occ. eigenvalues --   -0.41648  -0.41380  -0.41097  -0.40531  -0.40273
 Alpha  occ. eigenvalues --   -0.40185  -0.40149  -0.39750  -0.39428  -0.39311
 Alpha  occ. eigenvalues --   -0.38203  -0.37954  -0.37671  -0.37098  -0.36409
 Alpha  occ. eigenvalues --   -0.36255  -0.35952  -0.35368  -0.35140  -0.34895
 Alpha  occ. eigenvalues --   -0.34640  -0.34218  -0.34123  -0.33709  -0.33552
 Alpha  occ. eigenvalues --   -0.33487  -0.33375  -0.32758  -0.32635  -0.31673
 Alpha  occ. eigenvalues --   -0.29230  -0.28889  -0.28355  -0.26869  -0.26791
 Alpha  occ. eigenvalues --   -0.25505  -0.25388  -0.25135  -0.24579  -0.23921
 Alpha  occ. eigenvalues --   -0.22494  -0.21243  -0.19984
 Alpha virt. eigenvalues --   -0.02201  -0.01497  -0.01177  -0.00601  -0.00369
 Alpha virt. eigenvalues --    0.00490   0.01120   0.02398   0.03892   0.06002
 Alpha virt. eigenvalues --    0.06963   0.07484   0.07672   0.07950   0.08057
 Alpha virt. eigenvalues --    0.09241   0.09728   0.09801   0.10515   0.11541
 Alpha virt. eigenvalues --    0.11853   0.12260   0.12354   0.12825   0.13715
 Alpha virt. eigenvalues --    0.14238   0.14628   0.14849   0.15044   0.15297
 Alpha virt. eigenvalues --    0.15773   0.15898   0.16008   0.16356   0.16952
 Alpha virt. eigenvalues --    0.17178   0.17330   0.17659   0.17888   0.18090
 Alpha virt. eigenvalues --    0.18392   0.18783   0.18885   0.19512   0.19669
 Alpha virt. eigenvalues --    0.19862   0.20074   0.20411   0.21124   0.21740
 Alpha virt. eigenvalues --    0.21975   0.22335   0.22567   0.23472   0.24377
 Alpha virt. eigenvalues --    0.24725   0.25068   0.25691   0.26080   0.26628
 Alpha virt. eigenvalues --    0.26763   0.27112   0.27934   0.28305   0.29158
 Alpha virt. eigenvalues --    0.29519   0.30671   0.31202   0.31426   0.31874
 Alpha virt. eigenvalues --    0.32675   0.33046   0.33332   0.33695   0.34311
 Alpha virt. eigenvalues --    0.34545   0.34908   0.35563   0.36056   0.36313
 Alpha virt. eigenvalues --    0.37716   0.38981   0.39610   0.43208   0.45630
 Alpha virt. eigenvalues --    0.46285   0.46931   0.47877   0.48386   0.48787
 Alpha virt. eigenvalues --    0.49490   0.49932   0.50292   0.50674   0.50927
 Alpha virt. eigenvalues --    0.51525   0.51987   0.52512   0.52739   0.53192
 Alpha virt. eigenvalues --    0.53260   0.53375   0.53726   0.54060   0.54442
 Alpha virt. eigenvalues --    0.54956   0.55360   0.55718   0.56028   0.56294
 Alpha virt. eigenvalues --    0.56311   0.56529   0.56969   0.57555   0.57970
 Alpha virt. eigenvalues --    0.58358   0.58700   0.58860   0.58984   0.59403
 Alpha virt. eigenvalues --    0.59894   0.59937   0.60351   0.60443   0.60906
 Alpha virt. eigenvalues --    0.61008   0.61076   0.61475   0.62071   0.62157
 Alpha virt. eigenvalues --    0.62262   0.62697   0.62786   0.63107   0.63566
 Alpha virt. eigenvalues --    0.63980   0.64152   0.65021   0.65218   0.65771
 Alpha virt. eigenvalues --    0.66056   0.66185   0.66864   0.66969   0.67800
 Alpha virt. eigenvalues --    0.68437   0.68675   0.69125   0.69699   0.70309
 Alpha virt. eigenvalues --    0.70972   0.71066   0.72783   0.72897   0.73893
 Alpha virt. eigenvalues --    0.74664   0.74690   0.75587   0.75783   0.75915
 Alpha virt. eigenvalues --    0.76520   0.76622   0.76836   0.78088   0.78681
 Alpha virt. eigenvalues --    0.79012   0.79236   0.79325   0.79691   0.80771
 Alpha virt. eigenvalues --    0.80798   0.81493   0.82003   0.82122   0.82183
 Alpha virt. eigenvalues --    0.82465   0.82581   0.82828   0.83162   0.83420
 Alpha virt. eigenvalues --    0.84171   0.84403   0.84538   0.85015   0.85739
 Alpha virt. eigenvalues --    0.85956   0.86182   0.86413   0.86950   0.87197
 Alpha virt. eigenvalues --    0.87616   0.87886   0.88572   0.88784   0.89112
 Alpha virt. eigenvalues --    0.89631   0.89981   0.90520   0.91079   0.91161
 Alpha virt. eigenvalues --    0.91849   0.91974   0.93091   0.93338   0.94032
 Alpha virt. eigenvalues --    0.94491   0.94907   0.95578   0.95690   0.96182
 Alpha virt. eigenvalues --    0.96394   0.96867   0.97083   0.97458   0.97670
 Alpha virt. eigenvalues --    0.98069   0.98967   0.99802   0.99892   1.00572
 Alpha virt. eigenvalues --    1.00807   1.01529   1.02180   1.02995   1.03590
 Alpha virt. eigenvalues --    1.03913   1.04803   1.04956   1.05454   1.06886
 Alpha virt. eigenvalues --    1.07402   1.08356   1.09573   1.09816   1.10296
 Alpha virt. eigenvalues --    1.10780   1.11788   1.12305   1.12806   1.13607
 Alpha virt. eigenvalues --    1.14124   1.14488   1.15521   1.16168   1.16367
 Alpha virt. eigenvalues --    1.16787   1.17023   1.17609   1.19354   1.19728
 Alpha virt. eigenvalues --    1.20220   1.20531   1.21673   1.21967   1.23008
 Alpha virt. eigenvalues --    1.23399   1.23904   1.25495   1.25990   1.26715
 Alpha virt. eigenvalues --    1.28349   1.28606   1.28669   1.29574   1.29891
 Alpha virt. eigenvalues --    1.31021   1.31563   1.32922   1.34176   1.35053
 Alpha virt. eigenvalues --    1.35172   1.36164   1.36329   1.37385   1.37768
 Alpha virt. eigenvalues --    1.38220   1.38801   1.39461   1.39746   1.40576
 Alpha virt. eigenvalues --    1.40744   1.41057   1.41422   1.42608   1.42800
 Alpha virt. eigenvalues --    1.42926   1.43529   1.43642   1.44408   1.44808
 Alpha virt. eigenvalues --    1.45092   1.45216   1.46145   1.46930   1.47718
 Alpha virt. eigenvalues --    1.48639   1.48897   1.49588   1.49712   1.51717
 Alpha virt. eigenvalues --    1.53777   1.54461   1.54809   1.55611   1.56138
 Alpha virt. eigenvalues --    1.57202   1.58012   1.59007   1.60157   1.60665
 Alpha virt. eigenvalues --    1.62092   1.62327   1.62612   1.63557   1.65489
 Alpha virt. eigenvalues --    1.66898   1.67580   1.68756   1.69630   1.70633
 Alpha virt. eigenvalues --    1.72437   1.72998   1.74166   1.74550   1.75041
 Alpha virt. eigenvalues --    1.75936   1.76653   1.77002   1.77502   1.77724
 Alpha virt. eigenvalues --    1.78728   1.79028   1.79601   1.79719   1.80342
 Alpha virt. eigenvalues --    1.80817   1.81007   1.81437   1.81501   1.81960
 Alpha virt. eigenvalues --    1.82589   1.83322   1.84158   1.84537   1.85092
 Alpha virt. eigenvalues --    1.85590   1.86261   1.86317   1.86879   1.87138
 Alpha virt. eigenvalues --    1.87911   1.88126   1.88664   1.89324   1.89461
 Alpha virt. eigenvalues --    1.89561   1.90061   1.90350   1.90724   1.91201
 Alpha virt. eigenvalues --    1.91403   1.92064   1.92328   1.92828   1.93155
 Alpha virt. eigenvalues --    1.93659   1.94544   1.94785   1.95389   1.96150
 Alpha virt. eigenvalues --    1.96749   1.97397   1.97593   1.98325   1.98529
 Alpha virt. eigenvalues --    1.98934   1.99152   1.99491   2.00361   2.00762
 Alpha virt. eigenvalues --    2.01204   2.01519   2.01929   2.02003   2.03225
 Alpha virt. eigenvalues --    2.04407   2.04535   2.05084   2.05594   2.05724
 Alpha virt. eigenvalues --    2.06258   2.06481   2.06597   2.07204   2.07391
 Alpha virt. eigenvalues --    2.08316   2.08430   2.09647   2.10915   2.11262
 Alpha virt. eigenvalues --    2.11479   2.12475   2.12866   2.13532   2.14142
 Alpha virt. eigenvalues --    2.14608   2.15375   2.16225   2.17383   2.17738
 Alpha virt. eigenvalues --    2.18901   2.19423   2.21916   2.22222   2.23039
 Alpha virt. eigenvalues --    2.23598   2.24232   2.25004   2.25799   2.25982
 Alpha virt. eigenvalues --    2.26536   2.26923   2.27573   2.28079   2.28387
 Alpha virt. eigenvalues --    2.28522   2.29420   2.30362   2.30704   2.31460
 Alpha virt. eigenvalues --    2.31560   2.32025   2.32860   2.34148   2.34478
 Alpha virt. eigenvalues --    2.34612   2.34679   2.36126   2.36222   2.36987
 Alpha virt. eigenvalues --    2.37222   2.37563   2.37820   2.38070   2.38438
 Alpha virt. eigenvalues --    2.38814   2.39182   2.39643   2.40357   2.40624
 Alpha virt. eigenvalues --    2.41313   2.41343   2.41999   2.42508   2.43109
 Alpha virt. eigenvalues --    2.43591   2.43946   2.44220   2.44635   2.45314
 Alpha virt. eigenvalues --    2.45396   2.46020   2.46436   2.46948   2.47257
 Alpha virt. eigenvalues --    2.48185   2.48716   2.48933   2.49011   2.49608
 Alpha virt. eigenvalues --    2.49892   2.50326   2.51035   2.51608   2.52095
 Alpha virt. eigenvalues --    2.52745   2.53095   2.53693   2.54140   2.54667
 Alpha virt. eigenvalues --    2.55111   2.55651   2.56117   2.57036   2.57945
 Alpha virt. eigenvalues --    2.58551   2.59437   2.60035   2.60580   2.60753
 Alpha virt. eigenvalues --    2.61229   2.62063   2.62522   2.63023   2.63557
 Alpha virt. eigenvalues --    2.64427   2.64849   2.65594   2.65997   2.66555
 Alpha virt. eigenvalues --    2.67394   2.67946   2.68552   2.69330   2.69624
 Alpha virt. eigenvalues --    2.69993   2.70510   2.70710   2.71772   2.71794
 Alpha virt. eigenvalues --    2.72376   2.73545   2.73635   2.74198   2.74536
 Alpha virt. eigenvalues --    2.75245   2.75728   2.76340   2.77027   2.78152
 Alpha virt. eigenvalues --    2.79328   2.79894   2.80283   2.81537   2.82317
 Alpha virt. eigenvalues --    2.83022   2.83510   2.84493   2.85112   2.85990
 Alpha virt. eigenvalues --    2.86443   2.87420   2.88459   2.89328   2.89850
 Alpha virt. eigenvalues --    2.90203   2.90421   2.92333   2.92685   2.93129
 Alpha virt. eigenvalues --    2.94674   2.97598   2.98625   2.98710   3.00097
 Alpha virt. eigenvalues --    3.00612   3.01065   3.02029   3.02800   3.04835
 Alpha virt. eigenvalues --    3.05233   3.05471   3.05810   3.06870   3.08825
 Alpha virt. eigenvalues --    3.12049   3.14464   3.18398   3.19209   3.19341
 Alpha virt. eigenvalues --    3.20501   3.20552   3.22065   3.22208   3.22957
 Alpha virt. eigenvalues --    3.23357   3.23582   3.23957   3.24525   3.24902
 Alpha virt. eigenvalues --    3.25849   3.27255   3.27984   3.29832   3.33089
 Alpha virt. eigenvalues --    3.33864   3.34239   3.35971   3.36547   3.37244
 Alpha virt. eigenvalues --    3.37969   3.41862   3.42259   3.43325   3.43794
 Alpha virt. eigenvalues --    3.44463   3.46156   3.48313   3.48629   3.48863
 Alpha virt. eigenvalues --    3.49435   3.50191   3.50542   3.50870   3.54162
 Alpha virt. eigenvalues --    3.54543   3.55021   3.55918   3.81500   3.90080
 Alpha virt. eigenvalues --    3.90586   3.94433   3.95816   4.04953   4.06706
 Alpha virt. eigenvalues --    4.10082   4.13042   4.14397   4.15328   4.16338
 Alpha virt. eigenvalues --    4.16756   4.17853   4.17980   4.19641   4.20319
 Alpha virt. eigenvalues --    4.23207   4.24137   4.24635   4.26992   4.33596
 Alpha virt. eigenvalues --    4.37672   4.39609   4.42665   4.44529   4.44984
 Alpha virt. eigenvalues --    4.46121   4.46749   4.47349   4.49931   4.51367
 Alpha virt. eigenvalues --    4.57534   4.57914   4.63032   4.66283   4.69789
 Alpha virt. eigenvalues --    4.73040   4.78164   4.78805   4.83553   4.84793
 Alpha virt. eigenvalues --    4.90518   5.37264
          Condensed to atoms (all electrons):
 Mulliken charges:
               1
     1  F   -0.288669
     2  O   -0.548696
     3  O   -0.541176
     4  O   -0.488906
     5  O   -0.483733
     6  O   -0.487537
     7  N   -0.537403
     8  N   -0.602352
     9  C    0.291151
    10  C   -0.069420
    11  C    0.159302
    12  C   -0.128386
    13  C   -0.171413
    14  C   -0.034883
    15  C   -0.051631
    16  C    0.166630
    17  C   -0.198154
    18  C    0.042457
    19  C   -0.311289
    20  C   -0.309887
    21  C    0.011935
    22  C    0.157059
    23  C    0.483385
    24  C   -0.259334
    25  C   -0.093396
    26  C   -0.080419
    27  C   -0.092051
    28  C   -0.104273
    29  C   -0.181753
    30  C   -0.144982
    31  C   -0.088975
    32  C   -0.092106
    33  C    0.358397
    34  C    0.267629
    35  C    0.575454
    36  C   -0.082094
    37  C   -0.072381
    38  C   -0.120446
    39  C   -0.099307
    40  C   -0.093152
    41  C   -0.083217
    42  H    0.117997
    43  H    0.138515
    44  H    0.089954
    45  H    0.114477
    46  H    0.097881
    47  H    0.096201
    48  H    0.094234
    49  H    0.098283
    50  H    0.099408
    51  H    0.098166
    52  H    0.125315
    53  H    0.090584
    54  H    0.094978
    55  H    0.147232
    56  H    0.092917
    57  H    0.154965
    58  H    0.138550
    59  H    0.102815
    60  H    0.106907
    61  H    0.303365
    62  H    0.104726
    63  H    0.080435
    64  H    0.261268
    65  H    0.132206
    66  H    0.106518
    67  H    0.318030
    68  H    0.089478
    69  H    0.084535
    70  H    0.084684
    71  H    0.104805
    72  H    0.089734
    73  H    0.324034
    74  H    0.084529
    75  H    0.082035
    76  H    0.078261
 Sum of Mulliken charges =   0.00000
 Mulliken charges with hydrogens summed into heavy atoms:
               1
     1  F   -0.288669
     2  O   -0.245331
     3  O   -0.223146
     4  O   -0.488906
     5  O   -0.159699
     6  O   -0.487537
     7  N   -0.537403
     8  N   -0.341085
     9  C    0.291151
    10  C    0.187092
    11  C    0.159302
    12  C   -0.038433
    13  C    0.040946
    14  C   -0.034883
    15  C   -0.051631
    16  C    0.262831
    17  C   -0.005638
    18  C    0.042457
    19  C    0.011600
    20  C    0.022907
    21  C    0.011935
    22  C    0.249976
    23  C    0.483385
    24  C    0.034181
    25  C    0.009419
    26  C    0.026489
    27  C    0.012674
    28  C   -0.023837
    29  C   -0.049547
    30  C   -0.038464
    31  C    0.000503
    32  C   -0.007571
    33  C    0.358397
    34  C    0.267629
    35  C    0.575454
    36  C    0.002590
    37  C    0.032424
    38  C   -0.030713
    39  C   -0.014778
    40  C   -0.011117
    41  C   -0.004956
 Electronic spatial extent (au):  <R**2>=          25603.3993
 Charge=              0.0000 electrons
 Dipole moment (field-independent basis, Debye):
    X=              4.7607    Y=             -0.3254    Z=              2.4164  Tot=              5.3488
 Quadrupole moment (field-independent basis, Debye-Ang):
   XX=           -239.7533   YY=           -230.4663   ZZ=           -226.0943
   XY=             16.4860   XZ=              3.1968   YZ=             -4.5309
 Traceless Quadrupole moment (field-independent basis, Debye-Ang):
   XX=             -7.6486   YY=              1.6383   ZZ=              6.0103
   XY=             16.4860   XZ=              3.1968   YZ=             -4.5309
 Octapole moment (field-independent basis, Debye-Ang**2):
  XXX=            170.2186  YYY=            -12.3104  ZZZ=             -0.6619  XYY=             23.9361
  XXY=             13.2699  XXZ=            101.6561  XZZ=             97.8495  YZZ=            -41.1980
  YYZ=             28.1302  XYZ=            -33.6281
 Hexadecapole moment (field-independent basis, Debye-Ang**3):
 XXXX=         -21405.9805 YYYY=          -7231.0794 ZZZZ=          -4018.1974 XXXY=            209.3525
 XXXZ=             73.6496 YYYX=             93.3739 YYYZ=           -132.9372 ZZZX=            280.1814
 ZZZY=           -105.0298 XXYY=          -4490.3836 XXZZ=          -4197.7098 YYZZ=          -1819.4602
 XXYZ=           -179.7386 YYXZ=             99.1564 ZZXY=            -85.4460
 N-N= 4.761368033109D+03 E-N=-1.386332370936D+04  KE= 1.846825057784D+03
 Calling FoFJK, ICntrl=      2127 FMM=T ISym2X=0 I1Cent= 0 IOpClX= 0 NMat=1 NMatS=1 NMatT=0.
 ***** Axes restored to original set *****
 -------------------------------------------------------------------
 Center     Atomic                   Forces (Hartrees/Bohr)
 Number     Number              X              Y              Z
 -------------------------------------------------------------------
      1        9          -0.002195644    0.001746558   -0.000458961
      2        8           0.017024781   -0.002043489    0.002138303
      3        8          -0.003140902   -0.012107883   -0.003734360
      4        8          -0.001175155   -0.006299754   -0.001483355
      5        8          -0.011340450   -0.043589565    0.005933119
      6        8           0.007967138   -0.012693621   -0.022659843
      7        7           0.013269356    0.002198499    0.002223791
      8        7           0.016005111   -0.003532904   -0.023083667
      9        6          -0.015278245    0.020477692   -0.004332239
     10        6           0.007442699   -0.001765481   -0.009494003
     11        6           0.020650030   -0.023902299    0.005189112
     12        6          -0.015194727   -0.005638118   -0.000918506
     13        6          -0.004059161    0.007816543    0.006058123
     14        6          -0.009824630   -0.003326927   -0.002225035
     15        6          -0.014699718   -0.014940899   -0.000245425
     16        6          -0.000315980    0.005216100    0.003154462
     17        6           0.001166564   -0.001855705    0.001440382
     18        6           0.002114788   -0.003986369   -0.000072903
     19        6           0.004363553   -0.005244820    0.012285625
     20        6           0.008141035   -0.006898016   -0.012955155
     21        6          -0.001908211    0.001004867   -0.000520518
     22        6           0.004043059   -0.004040497    0.006401568
     23        6           0.015335576    0.004615188    0.021454150
     24        6           0.001434790   -0.005391265    0.003295640
     25        6          -0.002150694    0.001909262    0.004270652
     26        6          -0.000434327    0.000803384   -0.005554554
     27        6           0.006716145   -0.001312623   -0.006114288
     28        6          -0.004709214    0.002089268    0.005155307
     29        6          -0.010853011    0.008406870    0.002211149
     30        6          -0.008324229    0.006847907   -0.005092315
     31        6           0.008129985    0.002308500   -0.007694887
     32        6          -0.004146133    0.007037188    0.009150893
     33        6           0.009829532   -0.007927889    0.001822807
     34        6          -0.016622514   -0.004850553   -0.003203942
     35        6          -0.003008048    0.035754867    0.017937700
     36        6           0.004926960    0.011149075    0.000993959
     37        6          -0.002518716   -0.008883121   -0.005605407
     38        6          -0.007912334    0.003988687   -0.000241028
     39        6           0.005814213   -0.005241172   -0.001040672
     40        6           0.004236062    0.007014663    0.004018670
     41        6           0.010697819    0.002290371    0.004079416
     42        1           0.004952014   -0.003627359    0.007785280
     43        1          -0.006486907    0.015455163    0.002307782
     44        1           0.018245051    0.006522409    0.003459291
     45        1          -0.005496180    0.002509069   -0.005650193
     46        1           0.005671408   -0.013116915   -0.011261679
     47        1           0.004376145   -0.001326795    0.011061255
     48        1           0.004935822    0.005864507    0.000012623
     49        1          -0.000084875    0.002613167   -0.007339824
     50        1           0.001157835   -0.000410128   -0.001197439
     51        1          -0.000086500    0.001402508   -0.000391279
     52        1          -0.003262337   -0.001451675   -0.001079118
     53        1          -0.000964896    0.000842985    0.000174295
     54        1           0.000292709   -0.000311143    0.001052421
     55        1          -0.003860251    0.001114834    0.001727554
     56        1          -0.018868708   -0.005818840    0.005574424
     57        1           0.008396139    0.003998816   -0.000637830
     58        1          -0.003952385    0.006903810   -0.002465504
     59        1          -0.001844457    0.001947027   -0.007853159
     60        1          -0.004035924    0.001911486    0.006377702
     61        1          -0.017551437   -0.008250944   -0.005686619
     62        1          -0.002681548    0.003695796    0.005811101
     63        1           0.005562753    0.001661828   -0.003868031
     64        1          -0.010793142    0.005968288    0.006150758
     65        1           0.003664272   -0.001440620   -0.007091172
     66        1          -0.000533539   -0.000639530    0.007595676
     67        1           0.001622865    0.018841249   -0.001255333
     68        1          -0.004257905   -0.001849081    0.004070281
     69        1           0.001827346   -0.003216591   -0.004280579
     70        1          -0.002309623   -0.005341724   -0.000486496
     71        1          -0.000141600    0.009103165    0.003303490
     72        1           0.003018695   -0.006635397   -0.001892399
     73        1           0.004786258    0.017368070   -0.002909384
     74        1          -0.004126439    0.003814677    0.000177914
     75        1          -0.001753839   -0.004484992   -0.002039553
     76        1          -0.004913971   -0.000819642   -0.001740020
 -------------------------------------------------------------------
 Cartesian Forces:  Max     0.043589565 RMS     0.008384347

 GradGradGradGradGradGradGradGradGradGradGradGradGradGradGradGradGradGrad
 Berny optimization.
 FormGI is forming the generalized inverse of G from B-inverse, IUseBI=4.
 GSVD:  received Info=                   1 from GESDD.
 Internal  Forces:  Max     0.039046251 RMS     0.005383262
 Search for a local minimum.
 Step number   1 out of a maximum of  425
 All quantities printed in internal units (Hartrees-Bohrs-Radians)
 Mixed Optimization -- RFO/linear search
 Second derivative matrix not updated -- first step.
 ITU=  0
     Eigenvalues ---    0.00230   0.00235   0.00297   0.00302   0.00399
     Eigenvalues ---    0.00483   0.00497   0.00710   0.00731   0.00804
     Eigenvalues ---    0.01023   0.01025   0.01108   0.01132   0.01240
     Eigenvalues ---    0.01241   0.01290   0.01314   0.01374   0.01477
[...]
 Alpha  occ. eigenvalues --   -0.57922  -0.56670  -0.55247  -0.54220  -0.53889
 Alpha  occ. eigenvalues --   -0.53634  -0.52633  -0.51771  -0.51563  -0.51360
 Alpha  occ. eigenvalues --   -0.50233  -0.49754  -0.49015  -0.48056  -0.47830
 Alpha  occ. eigenvalues --   -0.47162  -0.46687  -0.46497  -0.45943  -0.45575
 Alpha  occ. eigenvalues --   -0.45008  -0.44446  -0.44069  -0.43774  -0.43525
 Alpha  occ. eigenvalues --   -0.43208  -0.42423  -0.42302  -0.42085  -0.41954
 Alpha  occ. eigenvalues --   -0.41616  -0.41525  -0.40852  -0.40759  -0.40567
 Alpha  occ. eigenvalues --   -0.40120  -0.39739  -0.39655  -0.39362  -0.38921
 Alpha  occ. eigenvalues --   -0.38072  -0.37925  -0.37644  -0.36964  -0.36383
 Alpha  occ. eigenvalues --   -0.35952  -0.35517  -0.35300  -0.34829  -0.34828
 Alpha  occ. eigenvalues --   -0.34791  -0.34505  -0.34331  -0.34028  -0.33914
 Alpha  occ. eigenvalues --   -0.33251  -0.33079  -0.33048  -0.32564  -0.31120
 Alpha  occ. eigenvalues --   -0.30207  -0.29052  -0.28120  -0.27086  -0.26545
 Alpha  occ. eigenvalues --   -0.25806  -0.25469  -0.24783  -0.24203  -0.23714
 Alpha  occ. eigenvalues --   -0.22754  -0.20277  -0.19719
 Alpha virt. eigenvalues --   -0.01962  -0.01636  -0.01404  -0.01145  -0.00191
 Alpha virt. eigenvalues --    0.00058   0.01257   0.03411   0.05233   0.05889
 Alpha virt. eigenvalues --    0.06074   0.07125   0.08222   0.09527   0.09772
 Alpha virt. eigenvalues --    0.10104   0.10175   0.11111   0.11937   0.12122
 Alpha virt. eigenvalues --    0.12306   0.12869   0.13814   0.13957   0.14290
 Alpha virt. eigenvalues --    0.14593   0.14775   0.15150   0.15464   0.15678
 Alpha virt. eigenvalues --    0.15999   0.16226   0.16581   0.16796   0.17327
 Alpha virt. eigenvalues --    0.17567   0.17827   0.18071   0.18227   0.18446
 Alpha virt. eigenvalues --    0.18637   0.18984   0.19262   0.19547   0.20016
 Alpha virt. eigenvalues --    0.20286   0.20358   0.20904   0.21279   0.21901
 Alpha virt. eigenvalues --    0.22182   0.22458   0.22994   0.23431   0.23996
 Alpha virt. eigenvalues --    0.24626   0.24858   0.25443   0.25945   0.26616
 Alpha virt. eigenvalues --    0.26864   0.27526   0.27686   0.28448   0.28898
 Alpha virt. eigenvalues --    0.29369   0.30259   0.30537   0.30919   0.31406
 Alpha virt. eigenvalues --    0.32170   0.33168   0.33395   0.33513   0.34103
 Alpha virt. eigenvalues --    0.34369   0.34817   0.35529   0.36234   0.36839
 Alpha virt. eigenvalues --    0.37724   0.39629   0.41503   0.42492   0.45353
 Alpha virt. eigenvalues --    0.46289   0.47314   0.47786   0.48554   0.48960
 Alpha virt. eigenvalues --    0.49754   0.49886   0.50627   0.50992   0.51400
 Alpha virt. eigenvalues --    0.51906   0.52171   0.52733   0.53097   0.53194
 Alpha virt. eigenvalues --    0.53518   0.53599   0.53808   0.54137   0.54211
 Alpha virt. eigenvalues --    0.54726   0.55763   0.55972   0.56284   0.56423
 Alpha virt. eigenvalues --    0.56736   0.57063   0.57530   0.57784   0.57984
 Alpha virt. eigenvalues --    0.58388   0.58670   0.58904   0.59377   0.59804
 Alpha virt. eigenvalues --    0.59960   0.60126   0.60401   0.60678   0.60704
 Alpha virt. eigenvalues --    0.60905   0.61085   0.61659   0.61864   0.62272
 Alpha virt. eigenvalues --    0.62525   0.62651   0.63019   0.63091   0.63457
 Alpha virt. eigenvalues --    0.63458   0.64029   0.64446   0.64918   0.65438
 Alpha virt. eigenvalues --    0.65735   0.66236   0.66770   0.67016   0.67632
 Alpha virt. eigenvalues --    0.67700   0.68043   0.68782   0.69333   0.69971
 Alpha virt. eigenvalues --    0.70262   0.71715   0.72349   0.72910   0.73011
 Alpha virt. eigenvalues --    0.74119   0.74846   0.75774   0.76144   0.76416
 Alpha virt. eigenvalues --    0.76567   0.76934   0.77414   0.78299   0.78821
 Alpha virt. eigenvalues --    0.79107   0.80044   0.80288   0.81130   0.81281
 Alpha virt. eigenvalues --    0.81845   0.82149   0.82436   0.82724   0.82947
 Alpha virt. eigenvalues --    0.83300   0.83521   0.83679   0.83813   0.84323
 Alpha virt. eigenvalues --    0.84968   0.85157   0.85371   0.85816   0.86079
 Alpha virt. eigenvalues --    0.86150   0.86402   0.87033   0.87293   0.87965
 Alpha virt. eigenvalues --    0.88307   0.88595   0.88953   0.89313   0.89741
 Alpha virt. eigenvalues --    0.90083   0.90503   0.90754   0.91185   0.91380
 Alpha virt. eigenvalues --    0.91857   0.92200   0.93017   0.93353   0.93536
 Alpha virt. eigenvalues --    0.94370   0.95039   0.95183   0.95832   0.96064
 Alpha virt. eigenvalues --    0.96347   0.96523   0.97107   0.97484   0.98262
 Alpha virt. eigenvalues --    0.98944   0.99538   0.99918   1.00273   1.00567
 Alpha virt. eigenvalues --    1.01461   1.01930   1.02397   1.03356   1.03460
 Alpha virt. eigenvalues --    1.04049   1.05124   1.05675   1.06899   1.06984
 Alpha virt. eigenvalues --    1.07678   1.08830   1.10396   1.10999   1.11898
 Alpha virt. eigenvalues --    1.12343   1.12756   1.13531   1.13638   1.14228
 Alpha virt. eigenvalues --    1.14964   1.15598   1.15854   1.16060   1.16569
 Alpha virt. eigenvalues --    1.16889   1.17531   1.18031   1.19136   1.19804
 Alpha virt. eigenvalues --    1.20582   1.21266   1.21680   1.21930   1.23023
 Alpha virt. eigenvalues --    1.23128   1.25077   1.25289   1.25985   1.26948
 Alpha virt. eigenvalues --    1.27630   1.28162   1.29169   1.30128   1.31931
 Alpha virt. eigenvalues --    1.32335   1.33091   1.33959   1.34722   1.34960
 Alpha virt. eigenvalues --    1.36007   1.36170   1.36712   1.37506   1.37764
 Alpha virt. eigenvalues --    1.38593   1.39348   1.39548   1.39948   1.40767
 Alpha virt. eigenvalues --    1.41288   1.41493   1.41969   1.42365   1.42488
 Alpha virt. eigenvalues --    1.42875   1.43170   1.43485   1.43879   1.44299
 Alpha virt. eigenvalues --    1.44564   1.45300   1.46082   1.47115   1.47186
 Alpha virt. eigenvalues --    1.47965   1.48407   1.49246   1.51401   1.51875
 Alpha virt. eigenvalues --    1.52557   1.53140   1.54410   1.55154   1.55672
 Alpha virt. eigenvalues --    1.56508   1.57478   1.57871   1.58843   1.60964
 Alpha virt. eigenvalues --    1.61912   1.62217   1.62480   1.64519   1.65077
 Alpha virt. eigenvalues --    1.66129   1.67246   1.68164   1.70289   1.70514
 Alpha virt. eigenvalues --    1.71653   1.72379   1.73161   1.74286   1.74682
 Alpha virt. eigenvalues --    1.75126   1.76182   1.76870   1.77231   1.77683
 Alpha virt. eigenvalues --    1.78432   1.79052   1.80062   1.80205   1.80788
 Alpha virt. eigenvalues --    1.81042   1.81631   1.82003   1.82517   1.82555
 Alpha virt. eigenvalues --    1.83560   1.83723   1.84245   1.84665   1.85109
 Alpha virt. eigenvalues --    1.85373   1.85695   1.85984   1.87164   1.87331
 Alpha virt. eigenvalues --    1.87542   1.87890   1.88410   1.88532   1.89236
 Alpha virt. eigenvalues --    1.89469   1.90215   1.90357   1.90800   1.91363
 Alpha virt. eigenvalues --    1.91814   1.92234   1.92816   1.93053   1.93340
 Alpha virt. eigenvalues --    1.94325   1.94575   1.95116   1.95568   1.96344
 Alpha virt. eigenvalues --    1.97031   1.97282   1.97702   1.98168   1.98438
 Alpha virt. eigenvalues --    1.98661   1.99083   1.99402   1.99517   1.99981
 Alpha virt. eigenvalues --    2.00925   2.01777   2.01916   2.02689   2.02913
 Alpha virt. eigenvalues --    2.03537   2.04164   2.04847   2.05954   2.06186
 Alpha virt. eigenvalues --    2.06478   2.07041   2.07187   2.07598   2.08272
 Alpha virt. eigenvalues --    2.09095   2.10251   2.10883   2.12263   2.12408
 Alpha virt. eigenvalues --    2.12845   2.13290   2.13478   2.14145   2.14922
 Alpha virt. eigenvalues --    2.15400   2.15477   2.17196   2.17827   2.18680
 Alpha virt. eigenvalues --    2.20164   2.20983   2.21209   2.21725   2.22441
 Alpha virt. eigenvalues --    2.23723   2.25176   2.25639   2.26062   2.26438
 Alpha virt. eigenvalues --    2.26578   2.27022   2.28146   2.28500   2.28544
 Alpha virt. eigenvalues --    2.29175   2.29538   2.30554   2.30752   2.31399
 Alpha virt. eigenvalues --    2.32054   2.32596   2.33059   2.33849   2.34083
 Alpha virt. eigenvalues --    2.34772   2.35118   2.35759   2.36629   2.37266
 Alpha virt. eigenvalues --    2.37414   2.37607   2.38444   2.38659   2.38924
 Alpha virt. eigenvalues --    2.39166   2.39383   2.39874   2.40448   2.40908
 Alpha virt. eigenvalues --    2.41211   2.41784   2.42226   2.42548   2.42577
 Alpha virt. eigenvalues --    2.43528   2.44284   2.44503   2.44817   2.45667
 Alpha virt. eigenvalues --    2.46000   2.46026   2.46503   2.46864   2.47378
 Alpha virt. eigenvalues --    2.48373   2.49070   2.49345   2.49892   2.50346
 Alpha virt. eigenvalues --    2.50808   2.50831   2.51038   2.51790   2.52940
 Alpha virt. eigenvalues --    2.53104   2.53725   2.54186   2.54869   2.55259
 Alpha virt. eigenvalues --    2.56027   2.56737   2.57318   2.57738   2.58196
 Alpha virt. eigenvalues --    2.58919   2.59621   2.59808   2.60108   2.61910
 Alpha virt. eigenvalues --    2.62124   2.63204   2.63334   2.63721   2.64558
 Alpha virt. eigenvalues --    2.64678   2.65035   2.65309   2.65982   2.66300
 Alpha virt. eigenvalues --    2.67389   2.67879   2.68486   2.68839   2.69454
 Alpha virt. eigenvalues --    2.70211   2.70990   2.71509   2.72526   2.72998
 Alpha virt. eigenvalues --    2.73395   2.74575   2.74636   2.75177   2.75648
 Alpha virt. eigenvalues --    2.75815   2.76829   2.77038   2.77457   2.78306
 Alpha virt. eigenvalues --    2.78973   2.79460   2.80162   2.81182   2.82042
 Alpha virt. eigenvalues --    2.82441   2.84884   2.85350   2.86292   2.86845
 Alpha virt. eigenvalues --    2.87766   2.88789   2.89494   2.89737   2.90044
 Alpha virt. eigenvalues --    2.91277   2.91691   2.92506   2.93468   2.94040
 Alpha virt. eigenvalues --    2.95229   2.97339   2.98636   2.99900   3.01254
 Alpha virt. eigenvalues --    3.01943   3.02679   3.03829   3.04362   3.04512
 Alpha virt. eigenvalues --    3.05169   3.06423   3.06754   3.08515   3.12503
 Alpha virt. eigenvalues --    3.14209   3.16578   3.17465   3.18925   3.21315
 Alpha virt. eigenvalues --    3.21397   3.22258   3.23831   3.24523   3.24949
 Alpha virt. eigenvalues --    3.25041   3.25265   3.25566   3.26146   3.26795
 Alpha virt. eigenvalues --    3.27357   3.29887   3.30595   3.33395   3.34814
 Alpha virt. eigenvalues --    3.36033   3.36685   3.37280   3.38537   3.39253
 Alpha virt. eigenvalues --    3.40681   3.42701   3.43097   3.44218   3.45280
 Alpha virt. eigenvalues --    3.46137   3.47362   3.48625   3.49434   3.50387
 Alpha virt. eigenvalues --    3.50714   3.51039   3.51964   3.53240   3.53801
 Alpha virt. eigenvalues --    3.57954   3.58681   3.63519   3.82627   3.89484
 Alpha virt. eigenvalues --    3.92287   3.92698   3.94376   4.05992   4.09678
 Alpha virt. eigenvalues --    4.11482   4.13347   4.13942   4.14598   4.14797
 Alpha virt. eigenvalues --    4.16954   4.17570   4.18272   4.19585   4.20757
 Alpha virt. eigenvalues --    4.25287   4.26296   4.27007   4.28979   4.30976
 Alpha virt. eigenvalues --    4.35265   4.40627   4.41900   4.43086   4.44461
 Alpha virt. eigenvalues --    4.45218   4.46806   4.48613   4.49398   4.53406
 Alpha virt. eigenvalues --    4.56723   4.57883   4.61550   4.64361   4.67806
 Alpha virt. eigenvalues --    4.73223   4.77149   4.79499   4.82675   4.86249
 Alpha virt. eigenvalues --    4.89603   5.31360
          Condensed to atoms (all electrons):
 Mulliken charges:
               1
     1  F   -0.295891
     2  O   -0.553483
     3  O   -0.562157
     4  O   -0.536711
     5  O   -0.474708
     6  O   -0.484594
     7  N   -0.533223
     8  N   -0.635052
     9  C    0.292580
    10  C   -0.078193
    11  C    0.189238
    12  C   -0.121999
    13  C   -0.183062
    14  C   -0.061220
    15  C   -0.048278
    16  C    0.158833
    17  C   -0.191552
    18  C    0.039383
    19  C   -0.321471
    20  C   -0.313701
    21  C   -0.025292
    22  C    0.170718
    23  C    0.555748
    24  C   -0.268362
    25  C   -0.102938
    26  C   -0.087997
    27  C   -0.092741
    28  C   -0.101608
    29  C   -0.141927
    30  C   -0.143497
    31  C   -0.089169
    32  C   -0.090498
    33  C    0.355270
    34  C    0.315885
    35  C    0.584636
    36  C   -0.084678
    37  C   -0.095917
    38  C   -0.140587
    39  C   -0.103446
    40  C   -0.090668
    41  C   -0.086087
    42  H    0.124631
    43  H    0.151389
    44  H    0.104340
    45  H    0.117292
    46  H    0.104361
    47  H    0.107767
    48  H    0.088333
    49  H    0.101320
    50  H    0.089060
    51  H    0.094491
    52  H    0.141893
    53  H    0.090960
    54  H    0.088167
    55  H    0.152855
    56  H    0.083136
    57  H    0.152158
    58  H    0.135400
    59  H    0.092778
    60  H    0.107028
    61  H    0.307878
    62  H    0.099406
    63  H    0.087984
    64  H    0.269802
    65  H    0.105808
    66  H    0.106212
    67  H    0.326205
    68  H    0.090867
    69  H    0.086685
    70  H    0.086243
    71  H    0.129999
    72  H    0.084844
    73  H    0.328615
    74  H    0.083322
    75  H    0.080339
    76  H    0.076845
 Sum of Mulliken charges =   0.00000
 Mulliken charges with hydrogens summed into heavy atoms:
               1
     1  F   -0.295891
     2  O   -0.245605
     3  O   -0.235952
     4  O   -0.536711
     5  O   -0.146093
     6  O   -0.484594
     7  N   -0.533223
     8  N   -0.365250
     9  C    0.292580
    10  C    0.197826
    11  C    0.189238
    12  C   -0.017659
    13  C    0.038591
    14  C   -0.061220
    15  C   -0.048278
    16  C    0.266601
    17  C   -0.001899
    18  C    0.039383
    19  C    0.003974
    20  C    0.018280
    21  C   -0.025292
    22  C    0.253854
    23  C    0.555748
    24  C    0.019196
    25  C   -0.010159
    26  C    0.019031
    27  C    0.006665
    28  C   -0.013624
    29  C   -0.036118
    30  C   -0.037285
    31  C    0.001698
    32  C   -0.003813
    33  C    0.355270
    34  C    0.315885
    35  C    0.584636
    36  C    0.001566
    37  C    0.034082
    38  C   -0.055743
    39  C   -0.020124
    40  C   -0.010329
    41  C   -0.009242
 Electronic spatial extent (au):  <R**2>=          28824.2601
 Charge=              0.0000 electrons
 Dipole moment (field-independent basis, Debye):
    X=              5.7798    Y=             -0.4069    Z=              2.5621  Tot=              6.3353
 Quadrupole moment (field-independent basis, Debye-Ang):
   XX=           -215.5863   YY=           -243.9238   ZZ=           -223.8657
   XY=             29.6729   XZ=              6.2830   YZ=              0.8714
 Traceless Quadrupole moment (field-independent basis, Debye-Ang):
   XX=             12.2056   YY=            -16.1319   ZZ=              3.9263
   XY=             29.6729   XZ=              6.2830   YZ=              0.8714
 Octapole moment (field-independent basis, Debye-Ang**2):
  XXX=            329.0003  YYY=             13.4345  ZZZ=             41.2754  XYY=             18.6564
  XXY=             56.4234  XXZ=            130.6026  XZZ=            129.6037  YZZ=            -20.6533
  YYZ=              1.1398  XYZ=             -5.1970
 Hexadecapole moment (field-independent basis, Debye-Ang**3):
 XXXX=         -23071.9944 YYYY=          -8987.1782 ZZZZ=          -3341.8612 XXXY=            589.1127
 XXXZ=            789.6823 YYYX=            255.5135 YYYZ=            -34.0308 ZZZX=            463.4419
 ZZZY=            -15.1920 XXYY=          -5528.8945 XXZZ=          -4032.6745 YYZZ=          -2040.7648
 XXYZ=            -40.3203 YYXZ=             -6.3688 ZZXY=            165.8965
 N-N= 4.640458228532D+03 E-N=-1.362178123889D+04  KE= 1.846961301443D+03
 1|1|UNPC-DESKTOP-IT5MUM5|FOpt|RB3LYP|6-31G++(d,p)|C33H35F1N2O5|CHARDI|21
 -Jul-2024|0||# opt b3lyp/6-31g++(d,p)||Title||0,1|F,-3.5300501835,4.4233
 112308,-2.7953886529|O,-3.2784503838,-3.7546894095,-0.8783499808|O,-5.
 9234521153,-0.8712911805,0.5877653421|O,3.8342607728,-2.1764570971,-0.
 4214828747|O,-7.1371585982,-0.9518811269,4.6807747332|O,-6.7926874737,
 0.3984676419,2.9196718041|N,-0.2574961938,-0.8962174546,-0.9647497795|
 N,3.9887577864,-0.1125738082,0.5582284934|C,0.8701740801,-1.6262921676
 ,-0.6457176281|C,-1.5841576866,-1.4601722342,-1.2320265455|C,0.0642901
 335,0.452319102,-1.0899227307|C,0.8016197637,-3.1327369321,-0.48014729
 26|C,-2.3997933751,-1.7594618879,0.035376402|C,1.9341842156,-0.7233109
 548,-0.5479857372|C,1.4193901546,0.5910949393,-0.8377899502|C,-3.68948
 20477,-2.5147452419,-0.2876030508|C,-4.5637005927,-2.7899787791,0.9471
 527851|C,-0.902820501,1.4831147542,-1.5296693521|C,1.3525893202,-3.621
 9295382,0.8737166701|C,1.4659464056,-3.8651453741,-1.6652447912|C,2.16
 62098866,1.8701128813,-0.9167298032|C,-5.1761878068,-1.5451756132,1.58
 85738414|C,3.322433691,-1.0865276161,-0.1573723008|C,-6.0679415538,-1.
 9157029454,2.7871478369|C,-2.0303980725,1.8246770154,-0.7629369145|C,-
 0.6869966533,2.1760164725,-2.7340200979|C,3.2848012629,2.0023570476,-1
 .7600353049|C,1.7752441516,2.9838941722,-0.1535064443|C,-2.9241479214,
 2.8079901066,-1.1844062829|C,-1.5630550403,3.1701042116,-3.1642312829|
 C,3.9847532735,3.2048289003,-1.8368634523|C,2.473378574,4.1896177741,-
 0.2349502314|C,-2.6731243473,3.4663256075,-2.3820421775|C,5.3203184087
 ,-0.0967096035,1.014699105|C,-6.6858237059,-0.6995182354,3.4373769336|
 C,3.5810034817,4.3044599844,-1.0756760114|C,6.1850363581,-1.2010712748
 ,0.9397446221|C,5.7841323001,1.1020434671,1.5841700522|C,7.4858635706,
 -1.086396258,1.4301447049|C,7.0837323513,1.1970769185,2.0713831122|C,7
 .9464701006,0.1017884044,1.9977215063|H,-2.121407995,-0.7436054739,-1.
 8567636839|H,-1.4706764788,-2.3744755118,-1.8150092433|H,-0.256275169,
 -3.409127932,-0.4945759677|H,-1.8050444915,-2.3636826745,0.7300033461|
 H,-2.640073853,-0.822221455,0.5457964857|H,-4.2803575797,-1.9277747414
 ,-1.0048349093|H,-5.3862545728,-3.4500600314,0.6389426704|H,-3.9702921
 575,-3.3393995767,1.6880777925|H,0.8592050824,-3.1130456325,1.70886975
 27|H,1.1672737239,-4.696456947,0.9777714259|H,2.4275573454,-3.45417258
 75,0.9479068867|H,1.3405211806,-4.9479755219,-1.5535091968|H,1.0080974
 293,-3.5703168789,-2.6158494341|H,2.5307426539,-3.6314101175,-1.702354
 5235|H,-4.368396272,-0.8953591234,1.9649143936|H,-6.890573778,-2.55838
 41576,2.4465981456|H,-5.5158562814,-2.4803520992,3.5454480813|H,-2.200
 6824192,1.3293648003,0.1873614614|H,0.1812917324,1.9297897583,-3.33580
 56291|H,-4.0608360356,-4.1860087978,-1.2455748818|H,3.5998447508,1.152
 3405294,-2.3577524093|H,0.9173524705,2.897644297,0.5060792727|H,3.4784
 864251,0.7449403715,0.7139970919|H,-3.7958812991,3.0745864905,-0.59701
 30281|H,-1.4011405711,3.7081441313,-4.091821718|H,-6.2998673437,-0.087
 4629202,1.0212425844|H,4.8457399303,3.284029054,-2.4942058688|H,2.1524
 782558,5.0378935936,0.3630242751|H,4.1267313358,5.2414268067,-1.136742
 9674|H,5.8285711279,-2.1205702685,0.499644785|H,5.1206140723,1.9621357
 581,1.6359164604|H,-7.540835119,-0.1274673602,5.0038854455|H,8.1460667
 513,-1.9469776924,1.366130883|H,7.4220145138,2.1327385986,2.5074994547
 |H,8.9611968442,0.1746574132,2.376903492||Version=IA32W-G09RevD.01|Sta
 te=1-A|HF=-1864.1514268|RMSD=6.097e-009|RMSF=2.877e-006|Dipole=-2.2413
 837,0.2721448,1.0557744|Quadrupole=1.6845797,-5.0429706,3.3583909,20.1
 537744,-14.0554292,1.669659|PG=C01 [X(C33H35F1N2O5)]||@


 YOU KNOW YOU'VE SPOKEN TOO LONG WHEN THE AUDIENCE STOPS LOOKING AT
 THEIR WATCHES AND STARTS SHAKING THEM.
 Job cpu time:       0 days 11 hours 52 minutes 17.0 seconds.
 File lengths (MBytes):  RWF=    383 Int=      0 D2E=      0 Chk=     44 Scr=      1
 Normal termination of Gaussian 09 at Sun Jul 21 11:01:23 2024.
