
                                 *****************
                                 * O   R   C   A *
                                 *****************

                                            #,                                       
                                            ###                                      
                                            ####                                     
                                            #####                                    
                                            ######                                   
                                           ########,                                 
                                     ,,################,,,,,                         
                               ,,#################################,,                 
                          ,,##########################################,,             
                       ,#########################################, ''#####,          
                    ,#############################################,,   '####,        
                  ,##################################################,,,,####,       
                ,###########''''           ''''###############################       
              ,#####''   ,,,,##########,,,,          '''####'''          '####       
            ,##' ,,,,###########################,,,                        '##       
           ' ,,###''''                  '''############,,,                           
         ,,##''                                '''############,,,,        ,,,,,,###''
      ,#''                                            '''#######################'''  
     '                                                          ''''####''''         
             ,#######,   #######,   ,#######,      ##                                
            ,#'     '#,  ##    ##  ,#'     '#,    #''#        ######   ,####,        
            ##       ##  ##   ,#'  ##            #'  '#       #        #'  '#        
            ##       ##  #######   ##           ,######,      #####,   #    #        
            '#,     ,#'  ##    ##  '#,     ,#' ,#      #,         ##   #,  ,#        
             '#######'   ##     ##  '#######'  #'      '#     #####' # '####'        



                  #######################################################
                  #                        -***-                        #
                  #          Department of theory and spectroscopy      #
                  #    Directorship and core code : Frank Neese         #
                  #        Max Planck Institute fuer Kohlenforschung    #
                  #                Kaiser Wilhelm Platz 1               #
                  #                 D-45470 Muelheim/Ruhr               #
                  #                      Germany                        #
                  #                                                     #
                  #                  All rights reserved                #
                  #                        -***-                        #
                  #######################################################


                         Program Version 5.0.3 -  RELEASE  -


 With contributions from (in alphabetic order):
   Daniel Aravena         : Magnetic Suceptibility
   Michael Atanasov       : Ab Initio Ligand Field Theory (pilot matlab implementation)
   Alexander A. Auer      : GIAO ZORA, VPT2 properties, NMR spectrum
   Ute Becker             : Parallelization
   Giovanni Bistoni       : ED, misc. LED, open-shell LED, HFLD
   Martin Brehm           : Molecular dynamics
   Dmytro Bykov           : SCF Hessian
   Vijay G. Chilkuri      : MRCI spin determinant printing, contributions to CSF-ICE
   Dipayan Datta          : RHF DLPNO-CCSD density
   Achintya Kumar Dutta   : EOM-CC, STEOM-CC
   Dmitry Ganyushin       : Spin-Orbit,Spin-Spin,Magnetic field MRCI
   Miquel Garcia          : C-PCM and meta-GGA Hessian, CC/C-PCM, Gaussian charge scheme
   Yang Guo               : DLPNO-NEVPT2, F12-NEVPT2, CIM, IAO-localization
   Andreas Hansen         : Spin unrestricted coupled pair/coupled cluster methods
   Benjamin Helmich-Paris : MC-RPA, TRAH-SCF, COSX integrals
   Lee Huntington         : MR-EOM, pCC
   Robert Izsak           : Overlap fitted RIJCOSX, COSX-SCS-MP3, EOM
   Marcus Kettner         : VPT2
   Christian Kollmar      : KDIIS, OOCD, Brueckner-CCSD(T), CCSD density, CASPT2, CASPT2-K
   Simone Kossmann        : Meta GGA functionals, TD-DFT gradient, OOMP2, MP2 Hessian
   Martin Krupicka        : Initial AUTO-CI
   Lucas Lang             : DCDCAS
   Marvin Lechner         : AUTO-CI (C++ implementation), FIC-MRCC
   Dagmar Lenk            : GEPOL surface, SMD
   Dimitrios Liakos       : Extrapolation schemes; Compound Job, initial MDCI parallelization
   Dimitrios Manganas     : Further ROCIS development; embedding schemes
   Dimitrios Pantazis     : SARC Basis sets
   Anastasios Papadopoulos: AUTO-CI, single reference methods and gradients
   Taras Petrenko         : DFT Hessian,TD-DFT gradient, ASA, ECA, R-Raman, ABS, FL, XAS/XES, NRVS
   Peter Pinski           : DLPNO-MP2, DLPNO-MP2 Gradient
   Christoph Reimann      : Effective Core Potentials
   Marius Retegan         : Local ZFS, SOC
   Christoph Riplinger    : Optimizer, TS searches, QM/MM, DLPNO-CCSD(T), (RO)-DLPNO pert. Triples
   Tobias Risthaus        : Range-separated hybrids, TD-DFT gradient, RPA, STAB
   Michael Roemelt        : Original ROCIS implementation
   Masaaki Saitow         : Open-shell DLPNO-CCSD energy and density
   Barbara Sandhoefer     : DKH picture change effects
   Avijit Sen             : IP-ROCIS
   Kantharuban Sivalingam : CASSCF convergence, NEVPT2, FIC-MRCI
   Bernardo de Souza      : ESD, SOC TD-DFT
   Georgi Stoychev        : AutoAux, RI-MP2 NMR, DLPNO-MP2 response
   Willem Van den Heuvel  : Paramagnetic NMR
   Boris Wezisla          : Elementary symmetry handling
   Frank Wennmohs         : Technical directorship


 We gratefully acknowledge several colleagues who have allowed us to
 interface, adapt or use parts of their codes:
   Stefan Grimme, W. Hujo, H. Kruse, P. Pracht,  : VdW corrections, initial TS optimization,
                  C. Bannwarth, S. Ehlert          DFT functionals, gCP, sTDA/sTD-DF
   Ed Valeev, F. Pavosevic, A. Kumar             : LibInt (2-el integral package), F12 methods
   Garnet Chan, S. Sharma, J. Yang, R. Olivares  : DMRG
   Ulf Ekstrom                                   : XCFun DFT Library
   Mihaly Kallay                                 : mrcc  (arbitrary order and MRCC methods)
   Jiri Pittner, Ondrej Demel                    : Mk-CCSD
   Frank Weinhold                                : gennbo (NPA and NBO analysis)
   Christopher J. Cramer and Donald G. Truhlar   : smd solvation model
   Lars Goerigk                                  : TD-DFT with DH, B97 family of functionals
   V. Asgeirsson, H. Jonsson                     : NEB implementation
   FAccTs GmbH                                   : IRC, NEB, NEB-TS, DLPNO-Multilevel, CI-OPT
                                                   MM, QMMM, 2- and 3-layer-ONIOM, Crystal-QMMM,
                                                   LR-CPCM, SF, NACMEs, symmetry and pop. for TD-DFT,
                                                   nearIR, NL-DFT gradient (VV10), updates on ESD,
                                                   ML-optimized integration grids
   S Lehtola, MJT Oliveira, MAL Marques          : LibXC Library
   Liviu Ungur et al                             : ANISO software


 Your calculation uses the libint2 library for the computation of 2-el integrals
 For citations please refer to: http://libint.valeyev.net

 Your ORCA version has been built with support for libXC version: 5.1.0
 For citations please refer to: https://tddft.org/programs/libxc/

 This ORCA versions uses:
   CBLAS   interface :  Fast vector & matrix operations
   LAPACKE interface :  Fast linear algebra routines
   SCALAPACK package :  Parallel linear algebra routines
   Shared memory     :  Shared parallel matrices
   BLAS/LAPACK       :  OpenBLAS 0.3.15  USE64BITINT DYNAMIC_ARCH NO_AFFINITY Haswell SINGLE_THREADED
        Core in use  :  Haswell
   Copyright (c) 2011-2014, The OpenBLAS Project


================================================================================

----- Orbital basis set information -----
Your calculation utilizes the basis: def2-SVP
   F. Weigend and R. Ahlrichs, Phys. Chem. Chem. Phys. 7, 3297 (2005).

----- AuxJ basis set information -----
Your calculation utilizes the auxiliary basis: def2/J
   F. Weigend, Phys. Chem. Chem. Phys. 8, 1057 (2006).

================================================================================
                                        WARNINGS
                       Please study these warnings very carefully!
================================================================================


INFO   : the flag for use of the SHARK integral package has been found!

================================================================================
                                       INPUT FILE
================================================================================
NAME = cyclo3.inp
|  1> # avogadro generated ORCA input file 
|  2> # Basic Mode
|  3> # 
|  4> !B3LYP DEF2-SVP
|  5> 
|  6> %PAL NPROCS 3 END
|  7> 
|  8> * xyz 0 1
|  9> C       57.91703       14.86771        3.33631
| 10>    C       59.38222       15.28082        3.15167
| 11>    O       60.12843       14.30221        2.43453
| 12>    C       60.04193       15.49888        4.49848
| 13>    O       61.37596       15.98772        4.38380
| 14>    C       59.19228       16.41444        5.37978
| 15>    O       59.80282       16.37634        6.66129
| 16>    C       57.73286       15.96859        5.43367
| 17>    O       57.23709       15.83852        4.08857
| 18>    C       56.78226       16.93250        6.14397
| 19>    O       56.67486       16.70387        7.52877
| 20>    H       57.40284       14.83493        2.37371
| 21>    H       59.37826       16.23150        2.60304
| 22>    H       59.85928       14.32869        1.50882
| 23>    H       60.13175       14.53778        5.00288
| 24>    H       61.39945       16.66063        3.69041
| 25>    H       59.23344       17.43068        4.97008
| 26>    H       57.67455       15.00576        5.94352
| 27>    H       55.79308       16.77108        5.71828
| 28>    H       57.05917       17.97021        5.92005
| 29>    H       57.48159       17.03259        7.96399
| 30>    C       59.91144       17.56879        7.41417
| 31>    C       61.37579       17.82821        7.71636
| 32>    O       62.14805       17.91436        6.53158
| 33>    C       61.94478       16.79061        8.67597
| 34>    O       63.23070       17.18601        9.11292
| 35>    C       61.05650       16.62588        9.89293
| 36>    O       61.51322       15.49618       10.64434
| 37>    C       59.60202       16.40683        9.48832
| 38>    O       59.16921       17.47498        8.60815
| 39>    C       58.62474       16.36423       10.65481
| 40>    O       58.85434       17.32052       11.66753
| 41>    H       61.44618       18.80421        8.19765
| 42>    H       61.95638       17.12244        5.99655
| 43>    H       61.99082       15.82225        8.16228
| 44>    H       63.73671       17.39975        8.31861
| 45>    H       61.11529       17.53038       10.50090
| 46>    H       59.52039       15.46216        8.94539
| 47>    H       58.62658       15.34989       11.05562
| 48>    H       57.62525       16.54188       10.25976
| 49>    H       59.50224       16.93103       12.27692
| 50>    H       59.48313       18.40702        6.86303
| 51>    C       61.92681       15.73871       11.95636
| 52>    C       63.06091       14.79981       12.35516
| 53>    O       64.14058       14.94809       11.46168
| 54>    C       62.57846       13.36610       12.44091
| 55>    O       63.66289       12.59033       12.92433
| 56>    C       61.37774       13.28668       13.35790
| 57>    O       60.88902       11.94094       13.29917
| 58>    C       60.29699       14.25545       12.91438
| 59>    O       60.84717       15.58742       12.88661
| 60>    C       59.05661       14.25409       13.79703
| 61>    O       59.30791       14.13636       15.18541
| 62>    H       63.35546       15.10724       13.36736
| 63>    H       64.76875       14.25025       11.68736
| 64>    H       62.27932       13.03117       11.44181
| 65>    H       63.36742       11.66814       12.99968
| 66>    H       61.67921       13.53224       14.37682
| 67>    H       59.98753       13.98315       11.90166
| 68>    H       58.39934       13.45370       13.45093
| 69>    H       58.52765       15.19355       13.63901
| 70>    H       59.30485       13.19052       15.39035
| 71>    H       62.25050       16.77256       12.07156
| 72>    C       60.84667       11.20735       14.48257
| 73>    C       61.34108        9.79444       14.22358
| 74>    O       62.67573        9.86259       13.73922
| 75>    C       60.42380        9.07405       13.26059
| 76>    O       60.91031        7.75097       13.14083
| 77>    C       58.99285        9.12613       13.76052
| 78>    O       58.17811        8.63787       12.69434
| 79>    C       58.56852       10.54770       14.11703
| 80>    O       59.52464       11.15093       15.01482
| 81>    C       57.22696       10.61868       14.81004
| 82>    O       57.15072        9.81332       15.97598
| 83>    H       61.32161        9.26316       15.18117
| 84>    H       62.89638        8.97917       13.41679
| 85>    H       60.45909        9.58844       12.29419
| 86>    H       60.19965        7.18674       12.78332
| 87>    H       58.89387        8.48402       14.63709
| 88>    H       58.51389       11.13142       13.19519
| 89>    H       56.46414       10.25260       14.12790
| 90>    H       57.00170       11.66622       15.03516
| 91>    H       57.81162       10.14492       16.59548
| 92>    H       61.44664       11.68063       15.25972
| 93>    C       57.17749        7.69168       12.98298
| 94>    C       57.45619        6.40354       12.22183
| 95>    O       58.74213        5.91031       12.58576
| 96>    C       57.36081        6.63011       10.72927
| 97>    O       57.54497        5.36779       10.11864
| 98>    C       56.03007        7.26700       10.36717
| 99>    O       56.09766        7.63565        8.98760
|100>    C       55.76631        8.50108       11.22148
|101>    O       55.90386        8.17313       12.61648
|102>    C       54.36440        9.04323       11.05829
|103>    O       54.15246       10.23727       11.78931
|104>    H       56.69067        5.67758       12.51461
|105>    H       58.93858        5.20186       11.95726
|106>    H       58.15198        7.32752       10.43301
|107>    H       57.47924        5.47692        9.15138
|108>    H       55.23122        6.53555       10.52154
|109>    H       56.48639        9.27975       10.96116
|110>    H       53.64590        8.26614       11.34752
|111>    H       54.19409        9.27945       10.01121
|112>    H       54.28368       10.02089       12.72007
|113>    H       57.12288        7.50552       14.05502
|114>    C       55.20395        7.03965        8.08577
|115>    C       55.96871        6.46778        6.89870
|116>    O       56.92539        5.51792        7.35392
|117>    C       56.61839        7.57264        6.09752
|118>    O       57.25067        6.95183        4.99352
|119>    C       55.56698        8.58135        5.67933
|120>    O       56.24445        9.67424        5.05779
|121>    C       54.77721        9.07891        6.88476
|122>    O       54.24122        7.96197        7.62010
|123>    C       53.58734        9.93335        6.50550
|124>    O       52.66668        9.25369        5.66807
|125>    H       55.23742        5.96368        6.25820
|126>    H       57.53344        5.37465        6.61569
|127>    H       57.35326        8.08479        6.72835
|128>    H       57.63867        7.64475        4.42861
|129>    H       54.87770        8.11522        4.97353
|130>    H       55.44248        9.66009        7.53011
|131>    H       53.93613       10.79658        5.94546
|132>    H       53.10514       10.29100        7.42084
|133>    H       52.36834        8.47750        6.15777
|134>    H       54.63370        6.25180        8.57907
|135>    C       55.94861        9.96229        3.71688
|136>    C       57.24625       10.11712        2.93121
|137>    O       58.01420        8.92447        3.04281
|138>    C       58.01482       11.32700        3.40871
|139>    O       59.15938       11.44842        2.57812
|140>    C       57.13364       12.55707        3.34998
|141>    O       57.88716       13.60751        3.95483
|142>    C       55.81803       12.33087        4.08544
|143>    O       55.18144       11.13989        3.58976
|144>    C       54.81713       13.44830        3.88552
|145>    O       54.52272       13.68239        2.51642
|146>    H       56.96961       10.27492        1.88357
|147>    H       58.90225        9.13777        2.72751
|148>    H       58.31319       11.16685        4.45015
|149>    H       59.60279       12.28352        2.80305
|150>    H       56.92043       12.79779        2.30685
|151>    H       56.02407       12.22541        5.15483
|152>    H       55.22871       14.37436        4.27723
|153>    H       53.91143       13.21052        4.45128
|154>    H       54.12884       12.87087        2.17379
|155>    H       55.33712        9.17254        3.28136
|156> *
|157> 
|158> 
|159> 
|160>                          ****END OF INPUT****
================================================================================

                       ****************************
                       * Single Point Calculation *
                       ****************************

---------------------------------
CARTESIAN COORDINATES (ANGSTROEM)
---------------------------------
  C     57.917030   14.867710    3.336310
  C     59.382220   15.280820    3.151670
  O     60.128430   14.302210    2.434530
  C     60.041930   15.498880    4.498480
  O     61.375960   15.987720    4.383800
  C     59.192280   16.414440    5.379780
  O     59.802820   16.376340    6.661290
  C     57.732860   15.968590    5.433670
  O     57.237090   15.838520    4.088570
  C     56.782260   16.932500    6.143970
  O     56.674860   16.703870    7.528770
  H     57.402840   14.834930    2.373710
  H     59.378260   16.231500    2.603040
  H     59.859280   14.328690    1.508820
  H     60.131750   14.537780    5.002880
  H     61.399450   16.660630    3.690410
  H     59.233440   17.430680    4.970080
  H     57.674550   15.005760    5.943520
  H     55.793080   16.771080    5.718280
  H     57.059170   17.970210    5.920050
  H     57.481590   17.032590    7.963990
  C     59.911440   17.568790    7.414170
  C     61.375790   17.828210    7.716360
  O     62.148050   17.914360    6.531580
  C     61.944780   16.790610    8.675970
  O     63.230700   17.186010    9.112920
  C     61.056500   16.625880    9.892930
  O     61.513220   15.496180   10.644340
  C     59.602020   16.406830    9.488320
  O     59.169210   17.474980    8.608150
  C     58.624740   16.364230   10.654810
  O     58.854340   17.320520   11.667530
  H     61.446180   18.804210    8.197650
  H     61.956380   17.122440    5.996550
  H     61.990820   15.822250    8.162280
  H     63.736710   17.399750    8.318610
  H     61.115290   17.530380   10.500900
  H     59.520390   15.462160    8.945390
  H     58.626580   15.349890   11.055620
  H     57.625250   16.541880   10.259760
  H     59.502240   16.931030   12.276920
  H     59.483130   18.407020    6.863030
  C     61.926810   15.738710   11.956360
  C     63.060910   14.799810   12.355160
  O     64.140580   14.948090   11.461680
  C     62.578460   13.366100   12.440910
  O     63.662890   12.590330   12.924330
  C     61.377740   13.286680   13.357900
  O     60.889020   11.940940   13.299170
  C     60.296990   14.255450   12.914380
  O     60.847170   15.587420   12.886610
  C     59.056610   14.254090   13.797030
  O     59.307910   14.136360   15.185410
  H     63.355460   15.107240   13.367360
  H     64.768750   14.250250   11.687360
  H     62.279320   13.031170   11.441810
  H     63.367420   11.668140   12.999680
  H     61.679210   13.532240   14.376820
  H     59.987530   13.983150   11.901660
  H     58.399340   13.453700   13.450930
  H     58.527650   15.193550   13.639010
  H     59.304850   13.190520   15.390350
  H     62.250500   16.772560   12.071560
  C     60.846670   11.207350   14.482570
  C     61.341080    9.794440   14.223580
  O     62.675730    9.862590   13.739220
  C     60.423800    9.074050   13.260590
  O     60.910310    7.750970   13.140830
  C     58.992850    9.126130   13.760520
  O     58.178110    8.637870   12.694340
  C     58.568520   10.547700   14.117030
  O     59.524640   11.150930   15.014820
  C     57.226960   10.618680   14.810040
  O     57.150720    9.813320   15.975980
  H     61.321610    9.263160   15.181170
  H     62.896380    8.979170   13.416790
  H     60.459090    9.588440   12.294190
  H     60.199650    7.186740   12.783320
  H     58.893870    8.484020   14.637090
  H     58.513890   11.131420   13.195190
  H     56.464140   10.252600   14.127900
  H     57.001700   11.666220   15.035160
  H     57.811620   10.144920   16.595480
  H     61.446640   11.680630   15.259720
  C     57.177490    7.691680   12.982980
  C     57.456190    6.403540   12.221830
  O     58.742130    5.910310   12.585760
  C     57.360810    6.630110   10.729270
  O     57.544970    5.367790   10.118640
  C     56.030070    7.267000   10.367170
  O     56.097660    7.635650    8.987600
  C     55.766310    8.501080   11.221480
  O     55.903860    8.173130   12.616480
  C     54.364400    9.043230   11.058290
  O     54.152460   10.237270   11.789310
  H     56.690670    5.677580   12.514610
  H     58.938580    5.201860   11.957260
  H     58.151980    7.327520   10.433010
  H     57.479240    5.476920    9.151380
  H     55.231220    6.535550   10.521540
  H     56.486390    9.279750   10.961160
  H     53.645900    8.266140   11.347520
  H     54.194090    9.279450   10.011210
  H     54.283680   10.020890   12.720070
  H     57.122880    7.505520   14.055020
  C     55.203950    7.039650    8.085770
  C     55.968710    6.467780    6.898700
  O     56.925390    5.517920    7.353920
  C     56.618390    7.572640    6.097520
  O     57.250670    6.951830    4.993520
  C     55.566980    8.581350    5.679330
  O     56.244450    9.674240    5.057790
  C     54.777210    9.078910    6.884760
  O     54.241220    7.961970    7.620100
  C     53.587340    9.933350    6.505500
  O     52.666680    9.253690    5.668070
  H     55.237420    5.963680    6.258200
  H     57.533440    5.374650    6.615690
  H     57.353260    8.084790    6.728350
  H     57.638670    7.644750    4.428610
  H     54.877700    8.115220    4.973530
  H     55.442480    9.660090    7.530110
  H     53.936130   10.796580    5.945460
  H     53.105140   10.291000    7.420840
  H     52.368340    8.477500    6.157770
  H     54.633700    6.251800    8.579070
  C     55.948610    9.962290    3.716880
  C     57.246250   10.117120    2.931210
  O     58.014200    8.924470    3.042810
  C     58.014820   11.327000    3.408710
  O     59.159380   11.448420    2.578120
  C     57.133640   12.557070    3.349980
  O     57.887160   13.607510    3.954830
  C     55.818030   12.330870    4.085440
  O     55.181440   11.139890    3.589760
  C     54.817130   13.448300    3.885520
  O     54.522720   13.682390    2.516420
  H     56.969610   10.274920    1.883570
  H     58.902250    9.137770    2.727510
  H     58.313190   11.166850    4.450150
  H     59.602790   12.283520    2.803050
  H     56.920430   12.797790    2.306850
  H     56.024070   12.225410    5.154830
  H     55.228710   14.374360    4.277230
  H     53.911430   13.210520    4.451280
  H     54.128840   12.870870    2.173790
  H     55.337120    9.172540    3.281360

----------------------------
CARTESIAN COORDINATES (A.U.)
----------------------------
  NO LB      ZA    FRAG     MASS         X           Y           Z
   0 C     6.0000    0    12.011  109.447325   28.095900    6.304712
   1 C     6.0000    0    12.011  112.216133   28.876565    5.955793
   2 O     8.0000    0    15.999  113.626266   27.027260    4.600595
   3 C     6.0000    0    12.011  113.462804   29.288639    8.500895
   4 O     8.0000    0    15.999  115.983756   30.212412    8.284181
   5 C     6.0000    0    12.011  111.857198   31.018796   10.166311
   6 O     8.0000    0    15.999  113.010952   30.946798   12.588014
   7 C     6.0000    0    12.011  109.099294   30.176262   10.268148
   8 O     8.0000    0    15.999  108.162425   29.930465    7.726278
   9 C     6.0000    0    12.011  107.302921   31.997788   11.610421
  10 O     8.0000    0    15.999  107.099964   31.565740   14.227313
  11 H     1.0000    0     1.008  108.475647   28.033955    4.485662
  12 H     1.0000    0     1.008  112.208650   30.673090    4.919033
  13 H     1.0000    0     1.008  113.117646   27.077300    2.851257
  14 H     1.0000    0     1.008  113.632539   27.472423    9.454073
  15 H     1.0000    0     1.008  116.028145   31.484028    6.973864
  16 H     1.0000    0     1.008  111.934980   32.939212    9.392090
  17 H     1.0000    0     1.008  108.989104   28.356777   11.231625
  18 H     1.0000    0     1.008  105.433641   31.692748   10.805983
  19 H     1.0000    0     1.008  107.826205   33.958775   11.187273
  20 H     1.0000    0     1.008  108.624463   32.186930   15.049760
  21 C     6.0000    0    12.011  113.216214   33.200202   14.010751
  22 C     6.0000    0    12.011  115.983434   33.690434   14.581807
  23 O     8.0000    0    15.999  117.442794   33.853234   12.342897
  24 C     6.0000    0    12.011  117.058670   31.729655   16.395207
  25 O     8.0000    0    15.999  119.488706   32.476852   17.220923
  26 C     6.0000    0    12.011  115.380064   31.418360   18.694928
  27 O     8.0000    0    15.999  116.243139   29.283536   20.114887
  28 C     6.0000    0    12.011  112.631495   31.004415   17.930326
  29 O     8.0000    0    15.999  111.813602   33.022926   16.267046
  30 C     6.0000    0    12.011  110.784703   30.923913   20.134673
  31 O     8.0000    0    15.999  111.218584   32.731039   22.048436
  32 H     1.0000    0     1.008  116.116452   35.534807   15.491313
  33 H     1.0000    0     1.008  117.080590   32.356722   11.331837
  34 H     1.0000    0     1.008  117.145673   29.899719   15.424474
  35 H     1.0000    0     1.008  120.444927   32.880762   15.719895
  36 H     1.0000    0     1.008  115.491161   33.127617   19.843825
  37 H     1.0000    0     1.008  112.477236   29.219248   16.904337
  38 H     1.0000    0     1.008  110.788180   29.007088   20.892094
  39 H     1.0000    0     1.008  108.895941   31.259623   19.388137
  40 H     1.0000    0     1.008  112.442938   31.995010   23.200017
  41 H     1.0000    0     1.008  112.406825   34.784227   12.969247
  42 C     6.0000    0    12.011  117.024711   29.741852   22.594246
  43 C     6.0000    0    12.011  119.167850   27.967588   23.347869
  44 O     8.0000    0    15.999  121.208130   28.247796   21.659436
  45 C     6.0000    0    12.011  118.256151   25.258268   23.509913
  46 O     8.0000    0    15.999  120.305427   23.792276   24.423444
  47 C     6.0000    0    12.011  115.987119   25.108186   25.242773
  48 O     8.0000    0    15.999  115.063572   22.565106   25.131789
  49 C     6.0000    0    12.011  113.944798   26.938896   24.404641
  50 O     8.0000    0    15.999  114.984487   29.455955   24.352164
  51 C     6.0000    0    12.011  111.600819   26.936326   26.072608
  52 O     8.0000    0    15.999  112.075707   26.713849   28.696266
  53 H     1.0000    0     1.008  119.724468   28.548546   25.260650
  54 H     1.0000    0     1.008  122.395200   26.929070   22.085910
  55 H     1.0000    0     1.008  117.690859   24.625343   21.621887
  56 H     1.0000    0     1.008  119.747070   22.049589   24.565835
  57 H     1.0000    0     1.008  116.556815   25.572228   27.168252
  58 H     1.0000    0     1.008  113.360003   26.424324   22.490878
  59 H     1.0000    0     1.008  110.358759   25.423808   25.418574
  60 H     1.0000    0     1.008  110.601230   28.711649   25.773994
  61 H     1.0000    0     1.008  112.069925   24.926470   29.083547
  62 H     1.0000    0     1.008  117.636397   31.695545   22.811942
  63 C     6.0000    0    12.011  114.983542   21.178822   27.368091
  64 C     6.0000    0    12.011  115.917842   18.508809   26.878671
  65 O     8.0000    0    15.999  118.439965   18.637594   25.963363
  66 C     6.0000    0    12.011  114.184434   17.147469   25.058883
  67 O     8.0000    0    15.999  115.103805   14.647211   24.832570
  68 C     6.0000    0    12.011  111.480330   17.245886   26.003614
  69 O     8.0000    0    15.999  109.940695   16.323209   23.988826
  70 C     6.0000    0    12.011  110.678463   19.932264   26.677321
  71 O     8.0000    0    15.999  112.485268   21.072204   28.373898
  72 C     6.0000    0    12.011  108.143282   20.066397   27.986920
  73 O     8.0000    0    15.999  107.999209   18.544487   30.190227
  74 H     1.0000    0     1.008  115.881049   17.504836   28.688254
  75 H     1.0000    0     1.008  118.856933   16.968172   25.354059
  76 H     1.0000    0     1.008  114.251122   18.119526   23.232652
  77 H     1.0000    0     1.008  113.760852   13.580970   24.156974
  78 H     1.0000    0     1.008  111.293285   16.032474   27.660091
  79 H     1.0000    0     1.008  110.575227   21.035335   24.935295
  80 H     1.0000    0     1.008  106.701761   19.374606   26.697862
  81 H     1.0000    0     1.008  107.717602   22.045961   28.412335
  82 H     1.0000    0     1.008  109.248129   19.171120   31.360912
  83 H     1.0000    0     1.008  116.117321   22.073192   28.836692
  84 C     6.0000    0    12.011  108.049797   14.535169   24.534277
  85 C     6.0000    0    12.011  108.576464   12.100937   23.095912
  86 O     8.0000    0    15.999  111.006538   11.168867   23.783640
  87 C     6.0000    0    12.011  108.396222   12.529092   20.275382
  88 O     8.0000    0    15.999  108.744234   10.143653   19.121458
  89 C     6.0000    0    12.011  105.881488   13.732640   19.591112
  90 O     8.0000    0    15.999  106.009214   14.429287   16.984103
  91 C     6.0000    0    12.011  105.383053   16.064713   21.205524
  92 O     8.0000    0    15.999  105.642985   15.444977   23.841692
  93 C     6.0000    0    12.011  102.733827   17.089228   20.897140
  94 O     8.0000    0    15.999  102.333319   19.345637   22.278567
  95 H     1.0000    0     1.008  107.129841   10.729071   23.649186
  96 H     1.0000    0     1.008  111.377775    9.830091   22.595947
  97 H     1.0000    0     1.008  109.891316   13.847006   19.715532
  98 H     1.0000    0     1.008  108.620022   10.349879   17.293602
  99 H     1.0000    0     1.008  104.371880   12.350400   19.882829
 100 H     1.0000    0     1.008  106.743807   17.536186   20.713591
 101 H     1.0000    0     1.008  101.376059   15.620741   21.443705
 102 H     1.0000    0     1.008  102.411988   17.535619   18.918445
 103 H     1.0000    0     1.008  102.581289   18.936738   24.037449
 104 H     1.0000    0     1.008  107.946599   14.183377   26.560139
 105 C     6.0000    0    12.011  104.320347   13.303011   15.279891
 106 C     6.0000    0    12.011  105.765534   12.222333   13.036654
 107 O     8.0000    0    15.999  107.573397   10.427358   13.896895
 108 C     6.0000    0    12.011  106.993251   14.310216   11.522643
 109 O     8.0000    0    15.999  108.188087   13.137055    9.436385
 110 C     6.0000    0    12.011  105.006374   16.216401   10.732378
 111 O     8.0000    0    15.999  106.286607   18.281664    9.557838
 112 C     6.0000    0    12.011  103.513925   17.156653   13.010311
 113 O     8.0000    0    15.999  102.501051   15.045943   14.399902
 114 C     6.0000    0    12.011  101.265397   18.771311   12.293613
 115 O     8.0000    0    15.999   99.525602   17.486940   10.711100
 116 H     1.0000    0     1.008  104.383596   11.269722   11.826284
 117 H     1.0000    0     1.008  108.722445   10.156617   12.501842
 118 H     1.0000    0     1.008  108.381954   15.278039   12.714739
 119 H     1.0000    0     1.008  108.921301   14.446484    8.368860
 120 H     1.0000    0     1.008  103.703824   15.335543    9.398610
 121 H     1.0000    0     1.008  104.771103   18.254925   14.229846
 122 H     1.0000    0     1.008  101.924514   20.402579   11.235291
 123 H     1.0000    0     1.008  100.354171   19.447172   14.023355
 124 H     1.0000    0     1.008   98.961821   16.020153   11.636499
 125 H     1.0000    0     1.008  103.242731   11.814190   16.212093
 126 C     6.0000    0    12.011  105.727550   18.826000    7.023885
 127 C     6.0000    0    12.011  108.179735   19.118586    5.539184
 128 O     8.0000    0    15.999  109.630950   16.864804    5.750078
 129 C     6.0000    0    12.011  109.632122   21.404928    6.441528
 130 O     8.0000    0    15.999  111.795026   21.634378    4.871941
 131 C     6.0000    0    12.011  107.966933   23.729423    6.330545
 132 O     8.0000    0    15.999  109.390879   25.714467    7.473546
 133 C     6.0000    0    12.011  105.480790   23.301967    7.720363
 134 O     8.0000    0    15.999  104.277809   21.051341    6.783663
 135 C     6.0000    0    12.011  103.589363   25.413604    7.342569
 136 O     8.0000    0    15.999  103.033009   25.855970    4.755345
 137 H     1.0000    0     1.008  107.656961   19.416785    3.559431
 138 H     1.0000    0     1.008  111.309121   17.267883    5.154247
 139 H     1.0000    0     1.008  110.195959   21.102288    8.409565
 140 H     1.0000    0     1.008  112.632950   23.212489    5.296997
 141 H     1.0000    0     1.008  107.564024   24.184318    4.359315
 142 H     1.0000    0     1.008  105.870149   23.102677    9.741217
 143 H     1.0000    0     1.008  104.367137   27.163604    8.082793
 144 H     1.0000    0     1.008  101.877838   24.964265    8.411700
 145 H     1.0000    0     1.008  102.288684   24.322419    4.107868
 146 H     1.0000    0     1.008  104.572002   17.333589    6.200872

--------------------------------
INTERNAL COORDINATES (ANGSTROEM)
--------------------------------
 C      0   0   0     0.000000000000     0.00000000     0.00000000
 C      1   0   0     1.533471074980     0.00000000     0.00000000
 O      2   1   0     1.424358338270   112.09221203     0.00000000
 C      2   1   3     1.515475048887   110.34605212   238.87957470
 O      4   2   1     1.425395414929   112.65980659   184.67572780
 C      4   2   1     1.528674238057   110.89006409   310.00330688
 O      6   4   2     1.420027669343   105.38105833   171.42799350
 C      6   4   2     1.526955497387   112.12908546    49.58968701
 O      1   2   3     1.403811086756   109.93824424   177.85613337
 C      8   6   4     1.528819458962   115.25121096   187.64753994
 O     10   8   6     1.407649628601   113.70961239   271.13925951
 H      1   2   3     1.091817129606   110.60421953   293.81089340
 H      2   1   3     1.097635194817   106.86175040   120.82591197
 H      3   2   1     0.964407547150   108.55447422    72.55361266
 H      4   2   1     1.089128184559   108.69347579    68.45685741
 H      5   4   2     0.966514014539   108.61670593    42.00968389
 H      6   4   2     1.096490753814   108.59120652   289.53113788
 H      8   6   4     1.091049351542   108.98039887    66.31061320
 H     10   8   6     1.088919402389   106.84255795   153.41320823
 H     10   8   6     1.097115016122   110.15678414    37.71955994
 H     11  10   8     0.973800071729   108.76215004    75.02856258
 C      7   6   4     1.414412811488   119.39099443   139.51578110
 C     22   7   6     1.517543559507   108.91830754   238.48158977
 O     23  22   7     1.416866605754   111.70475501    57.52730583
 C     23  22   7     1.523553324370   111.67692346   292.04696350
 O     25  23  22     1.414516422280   110.10260990   189.94125071
 C     25  23  22     1.515641439424   111.15367861   310.03783802
 O     27  25  23     1.431583820983   108.67715326   170.58629990
 C     27  25  23     1.525517690818   111.18802833    50.27340353
 O     22   7   6     1.409004588140   110.76129223   116.70008475
 C     29  27  25     1.522363254450   114.38379462   185.51831875
 O     31  29  27     1.411668701396   115.23464746    41.33493695
 H     23  22   7     1.090491089464   107.64825649   173.77620631
 H     24  23  22     0.974747031901   107.60221454   308.37331301
 H     25  23  22     1.097140914969   108.77612150    68.49608228
 H     26  25  23     0.965742866295   106.50637191   309.33817785
 H     27  25  23     1.091422940477   109.00359599   290.64795237
 H     29  27  25     1.092628871438   109.09706099    64.48866712
 H     31  29  27     1.090659285616   107.85014112   276.09722452
 H     31  29  27     1.089313676174   107.85254413   161.26713393
 H     32  31  29     0.970995902257   106.68000406   273.87778272
 H     22   7   6     1.090795255124   110.41160836   359.82853778
 C     28  27  25     1.396880084116   116.77210429   119.57986960
 C     43  28  27     1.525371253171   111.02817841   213.04881563
 O     44  43  28     1.409248302358   109.82135277    57.47994522
 C     44  43  28     1.515135449094   111.13073157   292.61319985
 O     46  44  43     1.418274449534   107.06213355   184.85885782
 C     46  44  43     1.512913320352   109.67535441   306.35702367
 O     48  46  44     1.432938449097   107.16599556   174.53878624
 C     48  46  44     1.517644841786   110.76493717    54.34751857
 O     43  28  27     1.433135114426   111.61018315    91.22685015
 C     50  48  46     1.522371642044   114.21783862   180.81124807
 O     52  50  48     1.415842882279   115.08738505    39.21038546
 H     44  43  28     1.098099151898   105.55118756   176.55031127
 H     45  44  43     0.965665406287   105.91222480   187.68213178
 H     46  44  43     1.095382880321   108.94558611    65.17931022
 H     47  46  44     0.971295289549   108.25059285   179.10348358
 H     48  46  44     1.090587841900   109.57687896   294.01215331
 H     50  48  46     1.093395893535   108.25561953    60.68601917
 H     52  50  48     1.091976746547   107.89710242   274.80433531
 H     52  50  48     1.089657787381   108.09954236   159.31462885
 H     53  52  50     0.967792887347   106.75963050   269.73826800
 H     43  28  27     1.089445766709   110.61278450   334.96579542
 C     49  48  46     1.392976442945   118.04321885   120.49530954
 C     64  49  48     1.519154941505   109.57714601   222.61977066
 O     65  64  49     1.421456877503   108.60710902    59.72389454
 C     65  64  49     1.512519120739   110.74109568   296.29178813
 O     67  65  64     1.414770343236   106.90367441   183.45314849
 C     67  65  64     1.516660882927   110.24071442   306.15891701
 O     69  67  65     1.427914173751   106.28839983   170.12657716
 C     69  67  65     1.525783927658   111.80211477    50.64989119
 O     64  49  48     1.426266665038   111.47189919   101.65317412
 C     71  69  67     1.511649514305   113.43330358   188.58276681
 O     73  71  69     1.419095962506   113.43411705    55.23795513
 H     65  64  49     1.095269887927   107.23584644   178.25970474
 H     66  65  64     0.965959845853   106.52109198   191.26324145
 H     67  65  64     1.095340776288   108.57350368    63.99509582
 H     68  67  65     0.975298174201   108.75281017   161.13791319
 H     69  67  65     1.091089940106   109.28086330   289.14357264
 H     71  69  67     1.092475382286   108.33427529    68.05005547
 H     73  71  69     1.086841248021   108.62314639   296.81824979
 H     73  71  69     1.094879506430   108.77041840   179.65103841
 H     74  73  71     0.964638595537   107.20246811    61.73195205
 H     64  49  48     1.089917465591   111.12101088   344.71754014
 C     70  69  67     1.407063946699   118.85098389   133.63420186
 C     85  70  69     1.521948643056   109.65373041   241.30480326
 O     86  85  70     1.424556970219   109.30409800    58.23490860
 C     86  85  70     1.512668722127   110.80258374   295.40913379
 O     88  86  85     1.414296887114   106.50617487   183.82036751
 C     88  86  85     1.519083351795   110.68515201   306.60645217
 O     90  88  86     1.429574977222   107.26117462   171.25803076
 C     90  88  86     1.523931875151   110.94722810    51.22078768
 O     85  70  69     1.410053094532   111.06421230   120.86130394
 C     92  90  88     1.511922367948   112.97673760   189.18796545
 O     94  92  90     1.415994465243   112.67094493   183.73252696
 H     86  85  70     1.094878495725   107.42277116   176.92150520
 H     87  86  85     0.967215723094   105.72046770   190.74737577
 H     88  86  85     1.095491060940   108.46084268    64.35367561
 H     89  88  86     0.975613497959   108.62952480   179.38110281
 H     90  88  86     1.094079760301   109.00792473   290.40308376
 H     92  90  88     1.092066242359   109.24767450    67.33830756
 H     94  92  90     1.097162299298   108.95299983    59.70759265
 H     94  92  90     1.086821931551   109.10065106   302.28652244
 H     95  94  92     0.964548169041   106.77672768   298.53279060
 H     85  70  69     1.089452871537   110.63480862     3.93353942
 C     91  90  88     1.402580091474   118.73660343   117.80828329
 C    106  91  90     1.523492152720   109.91615387   231.33264799
 O    107 106  91     1.422918089842   109.80369196    58.22140632
 C    107 106  91     1.511518810468   110.75566520   294.48601810
 O    109 107 106     1.415626735584   106.54618079   182.46431157
 C    109 107 106     1.515863360696   109.54276282   304.69050320
 O    111 109 107     1.428175803114   107.47303856   173.70187759
 C    111 109 107     1.524586531293   110.99881762    53.52155974
 O    106  91  90     1.412222285690   111.64634367   109.87265239
 C    113 111 109     1.513174305260   113.16966291   188.29444757
 O    115 113 111     1.418041450769   112.82408751    58.74531096
 H    107 106  91     1.095053480018   107.05644109   176.64887257
 H    108 107 106     0.967075296086   106.10583223   195.26528079
 H    109 107 106     1.095572009637   108.95398726    62.92628977
 H    110 109 107     0.974579619374   108.54586184   176.90850748
 H    111 109 107     1.091117654197   109.41082630   293.33694159
 H    113 111 109     1.093997709230   108.95178249    66.83130472
 H    115 113 111     1.086492199052   108.98943130   300.60509955
 H    115 113 111     1.094658703935   108.74118113   182.82175538
 H    116 115 113     0.965030445996   106.65131521    59.40737484
 H    106  91  90     1.090521698546   110.44667521   353.02117201
 C    112 111 109     1.403044452681   118.22982049   118.77147953
 C    127 112 111     1.524834170459   109.50193050   228.73930643
 O    128 127 112     1.422889941281   109.49811566    57.89361650
 C    128 127 112     1.510799691984   110.57213556   294.23253366
 O    130 128 127     1.419380202095   107.08411000   183.54882968
 C    130 128 127     1.514265369808   110.01300280   305.67327812
 O      1   2   3     1.404123658123   108.36971105    55.17134299
 C    132 130 128     1.524105483128   111.28684407    52.76907666
 O    127 112 111     1.411187819994   111.84147500   107.35269079
 C    134 132 130     1.513412905092   113.42535066   188.57079752
 O    136 134 132     1.419827519877   112.72125709    56.72682558
 H    128 127 112     1.094979497160   107.01400929   176.37517623
 H    129 128 127     0.966200694732   106.58411398   193.77351246
 H    130 128 127     1.095111844973   108.78744127    64.17232952
 H    131 130 128     0.971904286954   107.81637593   173.10417788
 H    132 130 128     1.091569887547   109.26055494   292.37676205
 H    134 132 130     1.094152304435   108.86784545    67.09354468
 H    136 134 132     1.086472247276   109.34015823   298.35420965
 H    136 134 132     1.094036652037   108.58523707   180.49262986
 H    137 136 134     0.964935998758   106.76078929    61.93839259
 H    127 112 111     1.089634228996   110.58044191   350.35261166

---------------------------
INTERNAL COORDINATES (A.U.)
---------------------------
 C      0   0   0     0.000000000000     0.00000000     0.00000000
 C      1   0   0     2.897840366002     0.00000000     0.00000000
 O      2   1   0     2.691647175898   112.09221203     0.00000000
 C      2   1   3     2.863832805188   110.34605212   238.87957470
 O      4   2   1     2.693606966762   112.65980659   184.67572780
 C      4   2   1     2.888775657909   110.89006409   310.00330688
 O      6   4   2     2.683463397649   105.38105833   171.42799350
 C      6   4   2     2.885527708747   112.12908546    49.58968701
 O      1   2   3     2.652818497732   109.93824424   177.85613337
 C      8   6   4     2.889050085647   115.25121096   187.64753994
 O     10   8   6     2.660072290571   113.70961239   271.13925951
 H      1   2   3     2.063235363278   110.60421953   293.81089340
 H      2   1   3     2.074229913157   106.86175040   120.82591197
 H      3   2   1     1.822466145600   108.55447422    72.55361266
 H      4   2   1     2.058153993551   108.69347579    68.45685741
 H      5   4   2     1.826446792075   108.61670593    42.00968389
 H      6   4   2     2.072067233086   108.59120652   289.53113788
 H      8   6   4     2.061784473007   108.98039887    66.31061320
 H     10   8   6     2.057759452429   106.84255795   153.41320823
 H     10   8   6     2.073246917883   110.15678414    37.71955994
 H     11  10   8     1.840215444761   108.76215004    75.02856258
 C      7   6   4     2.672852854021   119.39099443   139.51578110
 C     22   7   6     2.867741723764   108.91830754   238.48158977
 O     23  22   7     2.677489853173   111.70475501    57.52730583
 C     23  22   7     2.879098533485   111.67692346   292.04696350
 O     25  23  22     2.673048650043   110.10260990   189.94125071
 C     25  23  22     2.864147237734   111.15367861   310.03783802
 O     27  25  23     2.705301359410   108.67715326   170.58629990
 C     27  25  23     2.882810648099   111.18802833    50.27340353
 O     22   7   6     2.662632793023   110.76129223   116.70008475
 C     29  27  25     2.876849627256   114.38379462   185.51831875
 O     31  29  27     2.667667237466   115.23464746    41.33493695
 H     23  22   7     2.060729510568   107.64825649   173.77620631
 H     24  23  22     1.842004940146   107.60221454   308.37331301
 H     25  23  22     2.073295859612   108.77612150    68.49608228
 H     26  25  23     1.824989533086   106.50637191   309.33817785
 H     27  25  23     2.062490453781   109.00359599   290.64795237
 H     29  27  25     2.064769333033   109.09706099    64.48866712
 H     31  29  27     2.061047355232   107.85014112   276.09722452
 H     31  29  27     2.058504521904   107.85254413   161.26713393
 H     32  31  29     1.834916332426   106.68000406   273.87778272
 H     22   7   6     2.061304300364   110.41160836   359.82853778
 C     28  27  25     2.639720800908   116.77210429   119.57986960
 C     43  28  27     2.882533921049   111.02817841   213.04881563
 O     44  43  28     2.663093346151   109.82135277    57.47994522
 C     44  43  28     2.863191054583   111.13073157   292.61319985
 O     46  44  43     2.680150292357   107.06213355   184.85885782
 C     46  44  43     2.858991839828   109.67535441   306.35702367
 O     48  46  44     2.707861235559   107.16599556   174.53878624
 C     48  46  44     2.867933119534   110.76493717    54.34751857
 O     43  28  27     2.708232879170   111.61018315    91.22685015
 C     50  48  46     2.876865477511   114.21783862   180.81124807
 O     52  50  48     2.675555296169   115.08738505    39.21038546
 H     44  43  28     2.075106664979   105.55118756   176.55031127
 H     45  44  43     1.824843154885   105.91222480   187.68213178
 H     46  44  43     2.069973655592   108.94558611    65.17931022
 H     47  46  44     1.835482092415   108.25059285   179.10348358
 H     48  46  44     2.060912346175   109.57687896   294.01215331
 H     50  48  46     2.066218794736   108.25561953    60.68601917
 H     52  50  48     2.063536995585   107.89710242   274.80433531
 H     52  50  48     2.059154797845   108.09954236   159.31462885
 H     53  52  50     1.828863511443   106.75963050   269.73826800
 H     43  28  27     2.058754136840   110.61278450   334.96579542
 C     49  48  46     2.632343988170   118.04321885   120.49530954
 C     64  49  48     2.870786794438   109.57714601   222.61977066
 O     65  64  49     2.686164209659   108.60710902    59.72389454
 C     65  64  49     2.858246910515   110.74109568   296.29178813
 O     67  65  64     2.673528491110   106.90367441   183.45314849
 C     67  65  64     2.866073706763   110.24071442   306.15891701
 O     69  67  65     2.698366731134   106.28839983   170.12657716
 C     69  67  65     2.883313762813   111.80211477    50.64989119
 O     64  49  48     2.695253390864   111.47189919   101.65317412
 C     71  69  67     2.856603592512   113.43330358   188.58276681
 O     73  71  69     2.681702726889   113.43411705    55.23795513
 H     65  64  49     2.069760130913   107.23584644   178.25970474
 H     66  65  64     1.825399565027   106.52109198   191.26324145
 H     67  65  64     2.069894090502   108.57350368    63.99509582
 H     68  67  65     1.843046448154   108.75281017   161.13791319
 H     69  67  65     2.061861174276   109.28086330   289.14357264
 H     71  69  67     2.064479280571   108.33427529    68.05005547
 H     73  71  69     2.053832309809   108.62314639   296.81824979
 H     73  71  69     2.069022416795   108.77041840   179.65103841
 H     74  73  71     1.822902763776   107.20246811    61.73195205
 H     64  49  48     2.059645518544   111.12101088   344.71754014
 C     70  69  67     2.658965512175   118.85098389   133.63420186
 C     85  70  69     2.876066125269   109.65373041   241.30480326
 O     86  85  70     2.692022535883   109.30409800    58.23490860
 C     86  85  70     2.858529616168   110.80258374   295.40913379
 O     88  86  85     2.672633788703   106.50617487   183.82036751
 C     88  86  85     2.870651509491   110.68515201   306.60645217
 O     90  88  86     2.701505194857   107.26117462   171.25803076
 C     90  88  86     2.879813890788   110.94722810    51.22078768
 O     85  70  69     2.664614182954   111.06421230   120.86130394
 C     92  90  88     2.857119211170   112.97673760   189.18796545
 O     94  92  90     2.675841746458   112.67094493   183.73252696
 H     86  85  70     2.069020506839   107.42277116   176.92150520
 H     87  86  85     1.827772829070   105.72046770   190.74737577
 H     88  86  85     2.070178087336   108.46084268    64.35367561
 H     89  88  86     1.843642323700   108.62952480   179.38110281
 H     90  88  86     2.067511115635   109.00792473   290.40308376
 H     92  90  88     2.063706118159   109.24767450    67.33830756
 H     94  92  90     2.073336270136   108.95299983    59.70759265
 H     94  92  90     2.053795806970   109.10065106   302.28652244
 H     95  94  92     1.822731882462   106.77672768   298.53279060
 H     85  70  69     2.058767563019   110.63480862     3.93353942
 C     91  90  88     2.650492253777   118.73660343   117.80828329
 C    106  91  90     2.878982935819   109.91615387   231.33264799
 O    107 106  91     2.688925500804   109.80369196    58.22140632
 C    107 106  91     2.856356598056   110.75566520   294.48601810
 O    109 107 106     2.675146838111   106.54618079   182.46431157
 C    109 107 106     2.864566608161   109.54276282   304.69050320
 O    111 109 107     2.698861138978   107.47303856   173.70187759
 C    111 109 107     2.881051011609   110.99881762    53.52155974
 O    106  91  90     2.668713360175   111.64634367   109.87265239
 C    113 111 109     2.859485029829   113.16966291   188.29444757
 O    115 113 111     2.679709988502   112.82408751    58.74531096
 H    107 106  91     2.069351179232   107.05644109   176.64887257
 H    108 107 106     1.827507460484   106.10583223   195.26528079
 H    109 107 106     2.070331058204   108.95398726    62.92628977
 H    110 109 107     1.841688576319   108.54586184   176.90850748
 H    111 109 107     2.061913546319   109.41082630   293.33694159
 H    113 111 109     2.067356061581   108.95178249    66.83130472
 H    115 113 111     2.053172702849   108.98943130   300.60509955
 H    115 113 111     2.068605160550   108.74118113   182.82175538
 H    116 115 113     1.823643253829   106.65131521    59.40737484
 H    106  91  90     2.060787353351   110.44667521   353.02117201
 C    112 111 109     2.651369769285   118.22982049   118.77147953
 C    127 112 111     2.881518981813   109.50193050   228.73930643
 O    128 127 112     2.688872307733   109.49811566    57.89361650
 C    128 127 112     2.854997661063   110.57213556   294.23253366
 O    130 128 127     2.682239861870   107.08411000   183.54882968
 C    130 128 127     2.861546843018   110.01300280   305.67327812
 O      1   2   3     2.653409172012   108.36971105    55.17134299
 C    132 130 128     2.880141962319   111.28684407    52.76907666
 O    127 112 111     2.666758503314   111.84147500   107.35269079
 C    134 132 130     2.859935918167   113.42535066   188.57079752
 O    136 134 132     2.683085169972   112.72125709    56.72682558
 H    128 127 112     2.069211371891   107.01400929   176.37517623
 H    129 128 127     1.825854703447   106.58411398   193.77351246
 H    130 128 127     2.069461473012   108.78744127    64.17232952
 H    131 130 128     1.836632930727   107.81637593   173.10417788
 H    132 130 128     2.062768143500   109.26055494   292.37676205
 H    134 132 130     2.067648204181   108.86784545    67.09354468
 H    136 134 132     2.053134999457   109.34015823   298.35420965
 H    136 134 132     2.067429652822   108.58523707   180.49262986
 H    137 136 134     1.823464774415   106.76078929    61.93839259
 H    127 112 111     2.059110278949   110.58044191   350.35261166

---------------------
BASIS SET INFORMATION
---------------------
There are 3 groups of distinct atoms

 Group   1 Type C   : 7s4p1d contracted to 3s2p1d pattern {511/31/1}
 Group   2 Type O   : 7s4p1d contracted to 3s2p1d pattern {511/31/1}
 Group   3 Type H   : 4s1p contracted to 2s1p pattern {31/1}

Atom   0C    basis set group =>   1
Atom   1C    basis set group =>   1
Atom   2O    basis set group =>   2
Atom   3C    basis set group =>   1
Atom   4O    basis set group =>   2
Atom   5C    basis set group =>   1
Atom   6O    basis set group =>   2
Atom   7C    basis set group =>   1
Atom   8O    basis set group =>   2
Atom   9C    basis set group =>   1
Atom  10O    basis set group =>   2
Atom  11H    basis set group =>   3
Atom  12H    basis set group =>   3
Atom  13H    basis set group =>   3
Atom  14H    basis set group =>   3
Atom  15H    basis set group =>   3
Atom  16H    basis set group =>   3
Atom  17H    basis set group =>   3
Atom  18H    basis set group =>   3
Atom  19H    basis set group =>   3
Atom  20H    basis set group =>   3
Atom  21C    basis set group =>   1
Atom  22C    basis set group =>   1
Atom  23O    basis set group =>   2
Atom  24C    basis set group =>   1
Atom  25O    basis set group =>   2
Atom  26C    basis set group =>   1
Atom  27O    basis set group =>   2
Atom  28C    basis set group =>   1
Atom  29O    basis set group =>   2
Atom  30C    basis set group =>   1
Atom  31O    basis set group =>   2
Atom  32H    basis set group =>   3
Atom  33H    basis set group =>   3
Atom  34H    basis set group =>   3
Atom  35H    basis set group =>   3
Atom  36H    basis set group =>   3
Atom  37H    basis set group =>   3
Atom  38H    basis set group =>   3
Atom  39H    basis set group =>   3
Atom  40H    basis set group =>   3
Atom  41H    basis set group =>   3
Atom  42C    basis set group =>   1
Atom  43C    basis set group =>   1
Atom  44O    basis set group =>   2
Atom  45C    basis set group =>   1
Atom  46O    basis set group =>   2
Atom  47C    basis set group =>   1
Atom  48O    basis set group =>   2
Atom  49C    basis set group =>   1
Atom  50O    basis set group =>   2
Atom  51C    basis set group =>   1
Atom  52O    basis set group =>   2
Atom  53H    basis set group =>   3
Atom  54H    basis set group =>   3
Atom  55H    basis set group =>   3
Atom  56H    basis set group =>   3
Atom  57H    basis set group =>   3
Atom  58H    basis set group =>   3
Atom  59H    basis set group =>   3
Atom  60H    basis set group =>   3
Atom  61H    basis set group =>   3
Atom  62H    basis set group =>   3
Atom  63C    basis set group =>   1
Atom  64C    basis set group =>   1
Atom  65O    basis set group =>   2
Atom  66C    basis set group =>   1
Atom  67O    basis set group =>   2
Atom  68C    basis set group =>   1
Atom  69O    basis set group =>   2
Atom  70C    basis set group =>   1
Atom  71O    basis set group =>   2
Atom  72C    basis set group =>   1
Atom  73O    basis set group =>   2
Atom  74H    basis set group =>   3
Atom  75H    basis set group =>   3
Atom  76H    basis set group =>   3
Atom  77H    basis set group =>   3
Atom  78H    basis set group =>   3
Atom  79H    basis set group =>   3
Atom  80H    basis set group =>   3
Atom  81H    basis set group =>   3
Atom  82H    basis set group =>   3
Atom  83H    basis set group =>   3
Atom  84C    basis set group =>   1
Atom  85C    basis set group =>   1
Atom  86O    basis set group =>   2
Atom  87C    basis set group =>   1
Atom  88O    basis set group =>   2
Atom  89C    basis set group =>   1
Atom  90O    basis set group =>   2
Atom  91C    basis set group =>   1
Atom  92O    basis set group =>   2
Atom  93C    basis set group =>   1
Atom  94O    basis set group =>   2
Atom  95H    basis set group =>   3
Atom  96H    basis set group =>   3
Atom  97H    basis set group =>   3
Atom  98H    basis set group =>   3
Atom  99H    basis set group =>   3
Atom 100H    basis set group =>   3
Atom 101H    basis set group =>   3
Atom 102H    basis set group =>   3
Atom 103H    basis set group =>   3
Atom 104H    basis set group =>   3
Atom 105C    basis set group =>   1
Atom 106C    basis set group =>   1
Atom 107O    basis set group =>   2
Atom 108C    basis set group =>   1
Atom 109O    basis set group =>   2
Atom 110C    basis set group =>   1
Atom 111O    basis set group =>   2
Atom 112C    basis set group =>   1
Atom 113O    basis set group =>   2
Atom 114C    basis set group =>   1
Atom 115O    basis set group =>   2
Atom 116H    basis set group =>   3
Atom 117H    basis set group =>   3
Atom 118H    basis set group =>   3
Atom 119H    basis set group =>   3
Atom 120H    basis set group =>   3
Atom 121H    basis set group =>   3
Atom 122H    basis set group =>   3
Atom 123H    basis set group =>   3
Atom 124H    basis set group =>   3
Atom 125H    basis set group =>   3
Atom 126C    basis set group =>   1
Atom 127C    basis set group =>   1
Atom 128O    basis set group =>   2
Atom 129C    basis set group =>   1
Atom 130O    basis set group =>   2
Atom 131C    basis set group =>   1
Atom 132O    basis set group =>   2
Atom 133C    basis set group =>   1
Atom 134O    basis set group =>   2
Atom 135C    basis set group =>   1
Atom 136O    basis set group =>   2
Atom 137H    basis set group =>   3
Atom 138H    basis set group =>   3
Atom 139H    basis set group =>   3
Atom 140H    basis set group =>   3
Atom 141H    basis set group =>   3
Atom 142H    basis set group =>   3
Atom 143H    basis set group =>   3
Atom 144H    basis set group =>   3
Atom 145H    basis set group =>   3
Atom 146H    basis set group =>   3
---------------------------------
AUXILIARY/J BASIS SET INFORMATION
---------------------------------
There are 3 groups of distinct atoms

 Group   1 Type C   : 12s5p4d2f1g contracted to 6s4p3d1f1g pattern {711111/2111/211/2/1}
 Group   2 Type O   : 12s5p4d2f1g contracted to 6s4p3d1f1g pattern {711111/2111/211/2/1}
 Group   3 Type H   : 5s2p1d contracted to 3s1p1d pattern {311/2/1}

Atom   0C    basis set group =>   1
Atom   1C    basis set group =>   1
Atom   2O    basis set group =>   2
Atom   3C    basis set group =>   1
Atom   4O    basis set group =>   2
Atom   5C    basis set group =>   1
Atom   6O    basis set group =>   2
Atom   7C    basis set group =>   1
Atom   8O    basis set group =>   2
Atom   9C    basis set group =>   1
Atom  10O    basis set group =>   2
Atom  11H    basis set group =>   3
Atom  12H    basis set group =>   3
Atom  13H    basis set group =>   3
Atom  14H    basis set group =>   3
Atom  15H    basis set group =>   3
Atom  16H    basis set group =>   3
Atom  17H    basis set group =>   3
Atom  18H    basis set group =>   3
Atom  19H    basis set group =>   3
Atom  20H    basis set group =>   3
Atom  21C    basis set group =>   1
Atom  22C    basis set group =>   1
Atom  23O    basis set group =>   2
Atom  24C    basis set group =>   1
Atom  25O    basis set group =>   2
Atom  26C    basis set group =>   1
Atom  27O    basis set group =>   2
Atom  28C    basis set group =>   1
Atom  29O    basis set group =>   2
Atom  30C    basis set group =>   1
Atom  31O    basis set group =>   2
Atom  32H    basis set group =>   3
Atom  33H    basis set group =>   3
Atom  34H    basis set group =>   3
Atom  35H    basis set group =>   3
Atom  36H    basis set group =>   3
Atom  37H    basis set group =>   3
Atom  38H    basis set group =>   3
Atom  39H    basis set group =>   3
Atom  40H    basis set group =>   3
Atom  41H    basis set group =>   3
Atom  42C    basis set group =>   1
Atom  43C    basis set group =>   1
Atom  44O    basis set group =>   2
Atom  45C    basis set group =>   1
Atom  46O    basis set group =>   2
Atom  47C    basis set group =>   1
Atom  48O    basis set group =>   2
Atom  49C    basis set group =>   1
Atom  50O    basis set group =>   2
Atom  51C    basis set group =>   1
Atom  52O    basis set group =>   2
Atom  53H    basis set group =>   3
Atom  54H    basis set group =>   3
Atom  55H    basis set group =>   3
Atom  56H    basis set group =>   3
Atom  57H    basis set group =>   3
Atom  58H    basis set group =>   3
Atom  59H    basis set group =>   3
Atom  60H    basis set group =>   3
Atom  61H    basis set group =>   3
Atom  62H    basis set group =>   3
Atom  63C    basis set group =>   1
Atom  64C    basis set group =>   1
Atom  65O    basis set group =>   2
Atom  66C    basis set group =>   1
Atom  67O    basis set group =>   2
Atom  68C    basis set group =>   1
Atom  69O    basis set group =>   2
Atom  70C    basis set group =>   1
Atom  71O    basis set group =>   2
Atom  72C    basis set group =>   1
Atom  73O    basis set group =>   2
Atom  74H    basis set group =>   3
Atom  75H    basis set group =>   3
Atom  76H    basis set group =>   3
Atom  77H    basis set group =>   3
Atom  78H    basis set group =>   3
Atom  79H    basis set group =>   3
Atom  80H    basis set group =>   3
Atom  81H    basis set group =>   3
Atom  82H    basis set group =>   3
Atom  83H    basis set group =>   3
Atom  84C    basis set group =>   1
Atom  85C    basis set group =>   1
Atom  86O    basis set group =>   2
Atom  87C    basis set group =>   1
Atom  88O    basis set group =>   2
Atom  89C    basis set group =>   1
Atom  90O    basis set group =>   2
Atom  91C    basis set group =>   1
Atom  92O    basis set group =>   2
Atom  93C    basis set group =>   1
Atom  94O    basis set group =>   2
Atom  95H    basis set group =>   3
Atom  96H    basis set group =>   3
Atom  97H    basis set group =>   3
Atom  98H    basis set group =>   3
Atom  99H    basis set group =>   3
Atom 100H    basis set group =>   3
Atom 101H    basis set group =>   3
Atom 102H    basis set group =>   3
Atom 103H    basis set group =>   3
Atom 104H    basis set group =>   3
Atom 105C    basis set group =>   1
Atom 106C    basis set group =>   1
Atom 107O    basis set group =>   2
Atom 108C    basis set group =>   1
Atom 109O    basis set group =>   2
Atom 110C    basis set group =>   1
Atom 111O    basis set group =>   2
Atom 112C    basis set group =>   1
Atom 113O    basis set group =>   2
Atom 114C    basis set group =>   1
Atom 115O    basis set group =>   2
Atom 116H    basis set group =>   3
Atom 117H    basis set group =>   3
Atom 118H    basis set group =>   3
Atom 119H    basis set group =>   3
Atom 120H    basis set group =>   3
Atom 121H    basis set group =>   3
Atom 122H    basis set group =>   3
Atom 123H    basis set group =>   3
Atom 124H    basis set group =>   3
Atom 125H    basis set group =>   3
Atom 126C    basis set group =>   1
Atom 127C    basis set group =>   1
Atom 128O    basis set group =>   2
Atom 129C    basis set group =>   1
Atom 130O    basis set group =>   2
Atom 131C    basis set group =>   1
Atom 132O    basis set group =>   2
Atom 133C    basis set group =>   1
Atom 134O    basis set group =>   2
Atom 135C    basis set group =>   1
Atom 136O    basis set group =>   2
Atom 137H    basis set group =>   3
Atom 138H    basis set group =>   3
Atom 139H    basis set group =>   3
Atom 140H    basis set group =>   3
Atom 141H    basis set group =>   3
Atom 142H    basis set group =>   3
Atom 143H    basis set group =>   3
Atom 144H    basis set group =>   3
Atom 145H    basis set group =>   3
Atom 146H    basis set group =>   3


           ************************************************************
           *        Program running with 3 parallel MPI-processes     *
           *              working on a common directory               *
           ************************************************************
------------------------------------------------------------------------------
                           ORCA GTO INTEGRAL CALCULATION
                           -- RI-GTO INTEGRALS CHOSEN --
------------------------------------------------------------------------------
------------------------------------------------------------------------------
                   ___                                                        
                  /   \      - P O W E R E D   B Y -                         
                 /     \                                                     
                 |  |  |   _    _      __       _____    __    __             
                 |  |  |  | |  | |    /  \     |  _  \  |  |  /  |          
                  \  \/   | |  | |   /    \    | | | |  |  | /  /          
                 / \  \   | |__| |  /  /\  \   | |_| |  |  |/  /          
                |  |  |   |  __  | /  /__\  \  |    /   |      \           
                |  |  |   | |  | | |   __   |  |    \   |  |\   \          
                \     /   | |  | | |  |  |  |  | |\  \  |  | \   \       
                 \___/    |_|  |_| |__|  |__|  |_| \__\ |__|  \__/        
                                                                              
                      - O R C A' S   B I G   F R I E N D -                    
                                      &                                       
                       - I N T E G R A L  F E E D E R -                       
                                                                              
 v1 FN, 2020, v2 2021                                                         
------------------------------------------------------------------------------


Reading SHARK input file cyclo3.SHARKINP.tmp ... ok
----------------------
SHARK INTEGRAL PACKAGE
----------------------

Number of atoms                             ...    147
Number of basis functions                   ...   1428
Number of shells                            ...    672
Maximum angular momentum                    ...      2
Integral batch strategy                     ... SHARK/LIBINT Hybrid
RI-J (if used) integral strategy            ... SPLIT-RIJ (Revised 2003 algorithm where possible)
Printlevel                                  ...      1
Contraction scheme used                     ... SEGMENTED contraction
Coulomb Range Separation                    ... NOT USED
Exchange Range Separation                   ... NOT USED
Finite Nucleus Model                        ... NOT USED
Auxiliary Coulomb fitting basis             ... AVAILABLE
   # of basis functions in Aux-J            ...   4543
   # of shells in Aux-J                     ...   1505
   Maximum angular momentum in Aux-J        ...      4
Auxiliary J/K fitting basis                 ... NOT available
Auxiliary Correlation fitting basis         ... NOT available
Auxiliary 'external' fitting basis          ... NOT available
Integral threshold                          ...     1.000000e-10
Primitive cut-off                           ...     1.000000e-11
Primitive pair pre-selection threshold      ...     1.000000e-11

Calculating pre-screening integrals         ... done (  0.6 sec) Dimension = 672
Organizing shell pair data                  ... done (  0.6 sec)
Shell pair information
Total number of shell pairs                 ...    226128
Shell pairs after pre-screening             ...     76615
Total number of primitive shell pairs       ...    813386
Primitive shell pairs kept                  ...    157863
          la=0 lb=0:  25647 shell pairs
          la=1 lb=0:  29262 shell pairs
          la=1 lb=1:   8365 shell pairs
          la=2 lb=0:   8194 shell pairs
          la=2 lb=1:   4533 shell pairs
          la=2 lb=2:    614 shell pairs

Calculating one electron integrals          ... done (  0.7 sec)
Calculating RI/J V-Matrix + Cholesky decomp.... done (  3.3 sec)
Calculating Nuclear repulsion               ... done (  0.0 sec) ENN=  15629.254177106950 Eh

SHARK setup successfully completed in   6.6 seconds

Maximum memory used throughout the entire GTOINT-calculation: 261.3 MB


           ************************************************************
           *        Program running with 3 parallel MPI-processes     *
           *              working on a common directory               *
           ************************************************************
-------------------------------------------------------------------------------
                                 ORCA SCF
-------------------------------------------------------------------------------

------------
SCF SETTINGS
------------
Hamiltonian:
 Density Functional     Method          .... DFT(GTOs)
 Exchange Functional    Exchange        .... B88
   X-Alpha parameter    XAlpha          ....  0.666667
   Becke's b parameter  XBeta           ....  0.004200
 Correlation Functional Correlation     .... LYP
 LDA part of GGA corr.  LDAOpt          .... VWN-5
 Gradients option       PostSCFGGA      .... off
 Hybrid DFT is turned on
   Fraction HF Exchange ScalHFX         ....  0.200000
   Scaling of DF-GGA-X  ScalDFX         ....  0.720000
   Scaling of DF-GGA-C  ScalDFC         ....  0.810000
   Scaling of DF-LDA-C  ScalLDAC        ....  1.000000
   Perturbative correction              ....  0.000000
   Density functional embedding theory  .... OFF
   NL short-range parameter             ....  4.800000
 RI-approximation to the Coulomb term is turned on
   Number of AuxJ basis functions       .... 4543
   RIJ-COSX (HFX calculated with COS-X)).... on


General Settings:
 Integral files         IntName         .... cyclo3
 Hartree-Fock type      HFTyp           .... RHF
 Total Charge           Charge          ....    0
 Multiplicity           Mult            ....    1
 Number of Electrons    NEL             ....  602
 Basis Dimension        Dim             .... 1428
 Nuclear Repulsion      ENuc            ....  15629.2541771070 Eh

Convergence Acceleration:
 DIIS                   CNVDIIS         .... on
   Start iteration      DIISMaxIt       ....    12
   Startup error        DIISStart       ....  0.200000
   # of expansion vecs  DIISMaxEq       ....     5
   Bias factor          DIISBfac        ....   1.050
   Max. coefficient     DIISMaxC        ....  10.000
 Trust-Rad. Augm. Hess. CNVTRAH         .... auto
   Auto Start mean grad. ratio tolernc. ....  1.125000
   Auto Start start iteration           ....    20
   Auto Start num. interpolation iter.  ....    10
   Max. Number of Micro iterations      ....    16
   Max. Number of Macro iterations      .... Maxiter - #DIIS iter
   Number of Davidson start vectors     ....     2
   Converg. threshold I  (grad. norm)   ....   5.000e-05
   Converg. threshold II (energy diff.) ....   1.000e-06
   Grad. Scal. Fac. for Micro threshold ....   0.100
   Minimum threshold for Micro iter.    ....   0.010
   NR start threshold (gradient norm)   ....   0.001
   Initial trust radius                 ....   0.400
   Minimum AH scaling param. (alpha)    ....   1.000
   Maximum AH scaling param. (alpha)    .... 1000.000
   Orbital update algorithm             .... Taylor
   White noise on init. David. guess    .... on
   Maximum white noise                  ....   0.010
   Quad. conv. algorithm                .... NR
 SOSCF                  CNVSOSCF        .... on
   Start iteration      SOSCFMaxIt      ....   150
   Startup grad/error   SOSCFStart      ....  0.003300
 Level Shifting         CNVShift        .... on
   Level shift para.    LevelShift      ....    0.2500
   Turn off err/grad.   ShiftErr        ....    0.0010
 Zerner damping         CNVZerner       .... off
 Static damping         CNVDamp         .... on
   Fraction old density DampFac         ....    0.7000
   Max. Damping (<1)    DampMax         ....    0.9800
   Min. Damping (>=0)   DampMin         ....    0.0000
   Turn off err/grad.   DampErr         ....    0.1000
 Fernandez-Rico         CNVRico         .... off

SCF Procedure:
 Maximum # iterations   MaxIter         ....   125
 SCF integral mode      SCFMode         .... Direct
   Integral package                     .... SHARK and LIBINT hybrid scheme
 Reset frequency        DirectResetFreq ....    20
 Integral Threshold     Thresh          ....  1.000e-10 Eh
 Primitive CutOff       TCut            ....  1.000e-11 Eh

Convergence Tolerance:
 Convergence Check Mode ConvCheckMode   .... Total+1el-Energy
 Convergence forced     ConvForced      .... 0
 Energy Change          TolE            ....  1.000e-06 Eh
 1-El. energy change                    ....  1.000e-03 Eh
 Orbital Gradient       TolG            ....  5.000e-05
 Orbital Rotation angle TolX            ....  5.000e-05
 DIIS Error             TolErr          ....  1.000e-06


Diagonalization of the overlap matrix:
Smallest eigenvalue                        ... 5.581e-04
Time for diagonalization                   ...    0.638 sec
Threshold for overlap eigenvalues          ... 1.000e-08
Number of eigenvalues below threshold      ... 0
Time for construction of square roots      ...    0.361 sec
Total time needed                          ...    1.010 sec

Time for model grid setup =   12.327 sec

------------------------------
INITIAL GUESS: MODEL POTENTIAL
------------------------------
Loading Hartree-Fock densities                     ... done
Calculating cut-offs                               ... done
Initializing the effective Hamiltonian             ... done
Setting up the integral package (SHARK)            ... done
Starting the Coulomb interaction                   ... done (  10.5 sec)
Reading the grid                                   ... done
Mapping shells                                     ... done
Starting the XC term evaluation                    ... done (   2.1 sec)
  promolecular density results
     # of electrons  =    601.967664014
     EX              =   -524.423752305
     EC              =    -21.239412149
     EX+EC           =   -545.663164454
Transforming the Hamiltonian                       ... done (   0.3 sec)
Diagonalizing the Hamiltonian                      ... done (   0.7 sec)
Back transforming the eigenvectors                 ... done (   0.1 sec)
Now organizing SCF variables                       ... done
                      ------------------
                      INITIAL GUESS DONE (  26.2 sec)
                      ------------------
-------------------
DFT GRID GENERATION
-------------------

General Integration Accuracy     IntAcc      ... 4.388
Radial Grid Type                 RadialGrid  ... OptM3 with GC (2021)
Angular Grid (max. ang.)         AngularGrid ... 4 (Lebedev-302)
Angular grid pruning method      GridPruning ... 4 (adaptive)
Weight generation scheme         WeightScheme... Becke
Basis function cutoff            BFCut       ... 1.0000e-10
Integration weight cutoff        WCut        ... 1.0000e-14
Angular grids for H and He will be reduced by one unit
Partially contracted basis set               ... off
Rotationally invariant grid construction     ... off

Total number of grid points                  ...   675090
Total number of batches                      ...    10623
Average number of points per batch           ...       63
Average number of grid points per atom       ...     4592
Time for grid setup =   40.183 sec

--------------------
COSX GRID GENERATION
--------------------

GRIDX 1
-------
General Integration Accuracy     IntAcc      ... 3.816
Radial Grid Type                 RadialGrid  ... OptM3 with GC (2021)
Angular Grid (max. ang.)         AngularGrid ... 1 (Lebedev-50)
Angular grid pruning method      GridPruning ... 4 (adaptive)
Weight generation scheme         WeightScheme... Becke
Basis function cutoff            BFCut       ... 1.0000e-10
Integration weight cutoff        WCut        ... 1.0000e-14
Angular grids for H and He will be reduced by one unit
Partially contracted basis set               ... on
Rotationally invariant grid construction     ... off

Total number of grid points                  ...    85255
Total number of batches                      ...     1406
Average number of points per batch           ...       60
Average number of grid points per atom       ...      580
UseSFitting                                  ... on

GRIDX 2
-------
General Integration Accuracy     IntAcc      ... 4.020
Radial Grid Type                 RadialGrid  ... OptM3 with GC (2021)
Angular Grid (max. ang.)         AngularGrid ... 2 (Lebedev-110)
Angular grid pruning method      GridPruning ... 4 (adaptive)
Weight generation scheme         WeightScheme... Becke
Basis function cutoff            BFCut       ... 1.0000e-10
Integration weight cutoff        WCut        ... 1.0000e-14
Angular grids for H and He will be reduced by one unit
Partially contracted basis set               ... on
Rotationally invariant grid construction     ... off

Total number of grid points                  ...   180867
Total number of batches                      ...     2908
Average number of points per batch           ...       62
Average number of grid points per atom       ...     1230
UseSFitting                                  ... on

GRIDX 3
-------
General Integration Accuracy     IntAcc      ... 4.338
Radial Grid Type                 RadialGrid  ... OptM3 with GC (2021)
Angular Grid (max. ang.)         AngularGrid ... 3 (Lebedev-194)
Angular grid pruning method      GridPruning ... 4 (adaptive)
Weight generation scheme         WeightScheme... Becke
Basis function cutoff            BFCut       ... 1.0000e-10
Integration weight cutoff        WCut        ... 1.0000e-14
Angular grids for H and He will be reduced by one unit
Partially contracted basis set               ... on
Rotationally invariant grid construction     ... off

Total number of grid points                  ...   392088
Total number of batches                      ...     6199
[...]
      px      :     0.018368
      py      :     0.037726
144 H s       :     0.919484  s :     0.919484
      pz      :     0.019046  p :     0.066689
      px      :     0.033195
      py      :     0.014447
145 H s       :     0.746135  s :     0.746135
      pz      :     0.039900  p :     0.181242
      px      :     0.058459
      py      :     0.082883
146 H s       :     0.916015  s :     0.916015
      pz      :     0.016016  p :     0.066955
      px      :     0.023155
      py      :     0.027784


                      *****************************
                      * MAYER POPULATION ANALYSIS *
                      *****************************

  NA   - Mulliken gross atomic population
  ZA   - Total nuclear charge
  QA   - Mulliken gross atomic charge
  VA   - Mayer's total valence
  BVA  - Mayer's bonded valence
  FA   - Mayer's free valence

  ATOM       NA         ZA         QA         VA         BVA        FA
  0 C      5.6887     6.0000     0.3113     4.0995     4.0995     0.0000
  1 C      5.8305     6.0000     0.1695     4.0174     4.0174     0.0000
  2 O      8.2796     8.0000    -0.2796     2.1446     2.1446     0.0000
  3 C      5.7990     6.0000     0.2010     3.9634     3.9634     0.0000
  4 O      8.2915     8.0000    -0.2915     2.1649     2.1649    -0.0000
  5 C      5.8583     6.0000     0.1417     4.0094     4.0094     0.0000
  6 O      8.4003     8.0000    -0.4003     2.0487     2.0487     0.0000
  7 C      5.8394     6.0000     0.1606     3.9431     3.9431     0.0000
  8 O      8.3818     8.0000    -0.3818     2.0820     2.0820     0.0000
  9 C      5.7049     6.0000     0.2951     3.9814     3.9814     0.0000
 10 O      8.3432     8.0000    -0.3432     2.1210     2.1210     0.0000
 11 H      0.9966     1.0000     0.0034     1.0020     1.0020    -0.0000
 12 H      1.0164     1.0000    -0.0164     0.9905     0.9905     0.0000
 13 H      0.8236     1.0000     0.1764     1.0068     1.0068     0.0000
 14 H      0.9932     1.0000     0.0068     1.0229     1.0229    -0.0000
 15 H      0.8278     1.0000     0.1722     1.0122     1.0122    -0.0000
 16 H      1.0317     1.0000    -0.0317     1.0105     1.0105     0.0000
 17 H      1.0063     1.0000    -0.0063     1.0304     1.0304     0.0000
 18 H      0.9963     1.0000     0.0037     1.0019     1.0019     0.0000
 19 H      1.0264     1.0000    -0.0264     0.9858     0.9858     0.0000
 20 H      0.8174     1.0000     0.1826     1.0617     1.0617    -0.0000
 21 C      5.6812     6.0000     0.3188     4.0407     4.0407    -0.0000
 22 C      5.8094     6.0000     0.1906     3.9950     3.9950     0.0000
 23 O      8.3356     8.0000    -0.3356     2.1029     2.1029    -0.0000
 24 C      5.8118     6.0000     0.1882     4.1044     4.1044     0.0000
 25 O      8.2762     8.0000    -0.2762     2.1436     2.1436    -0.0000
 26 C      5.8504     6.0000     0.1496     4.0187     4.0187    -0.0000
 27 O      8.3814     8.0000    -0.3814     2.0741     2.0741    -0.0000
 28 C      5.8411     6.0000     0.1589     3.9247     3.9247     0.0000
 29 O      8.4134     8.0000    -0.4134     2.0671     2.0671     0.0000
 30 C      5.7055     6.0000     0.2945     3.9917     3.9917    -0.0000
 31 O      8.3340     8.0000    -0.3340     2.1357     2.1357     0.0000
 32 H      1.0081     1.0000    -0.0081     0.9997     0.9997     0.0000
 33 H      0.8378     1.0000     0.1622     1.0899     1.0899    -0.0000
 34 H      1.0236     1.0000    -0.0236     1.0115     1.0115    -0.0000
 35 H      0.8364     1.0000     0.1636     1.0361     1.0361     0.0000
 36 H      1.0110     1.0000    -0.0110     1.0349     1.0349     0.0000
 37 H      1.0107     1.0000    -0.0107     1.0139     1.0139     0.0000
 38 H      1.0204     1.0000    -0.0204     0.9890     0.9890     0.0000
 39 H      0.9967     1.0000     0.0033     1.0096     1.0096     0.0000
 40 H      0.8242     1.0000     0.1758     1.0691     1.0691     0.0000
 41 H      0.9996     1.0000     0.0004     0.9932     0.9932    -0.0000
 42 C      5.6676     6.0000     0.3324     4.0640     4.0640     0.0000
 43 C      5.7935     6.0000     0.2065     4.0635     4.0635    -0.0000
 44 O      8.2758     8.0000    -0.2758     2.1293     2.1293     0.0000
 45 C      5.8390     6.0000     0.1610     4.1097     4.1097    -0.0000
 46 O      8.3212     8.0000    -0.3212     2.1227     2.1227    -0.0000
 47 C      5.8725     6.0000     0.1275     4.0524     4.0524    -0.0000
 48 O      8.3941     8.0000    -0.3941     2.0545     2.0545    -0.0000
 49 C      5.8439     6.0000     0.1561     3.9334     3.9334     0.0000
 50 O      8.4256     8.0000    -0.4256     2.0600     2.0600     0.0000
 51 C      5.7163     6.0000     0.2837     3.9740     3.9740    -0.0000
 52 O      8.3298     8.0000    -0.3298     2.1256     2.1256     0.0000
 53 H      1.0218     1.0000    -0.0218     0.9932     0.9932     0.0000
 54 H      0.8332     1.0000     0.1668     1.0358     1.0358     0.0000
 55 H      1.0162     1.0000    -0.0162     1.0113     1.0113    -0.0000
 56 H      0.8347     1.0000     0.1653     1.0870     1.0870    -0.0000
 57 H      1.0101     1.0000    -0.0101     1.0316     1.0316    -0.0000
 58 H      1.0121     1.0000    -0.0121     1.0091     1.0091    -0.0000
 59 H      1.0121     1.0000    -0.0121     0.9874     0.9874     0.0000
 60 H      0.9984     1.0000     0.0016     1.0207     1.0207    -0.0000
 61 H      0.8363     1.0000     0.1637     1.0698     1.0698     0.0000
 62 H      0.9895     1.0000     0.0105     0.9982     0.9982    -0.0000
 63 C      5.6771     6.0000     0.3229     4.0629     4.0629    -0.0000
 64 C      5.7885     6.0000     0.2115     4.0116     4.0116    -0.0000
 65 O      8.2986     8.0000    -0.2986     2.1533     2.1533     0.0000
 66 C      5.8237     6.0000     0.1763     4.1095     4.1095     0.0000
 67 O      8.3192     8.0000    -0.3192     2.1338     2.1338    -0.0000
 68 C      5.8601     6.0000     0.1399     4.0253     4.0253     0.0000
 69 O      8.4034     8.0000    -0.4034     2.0519     2.0519     0.0000
 70 C      5.8732     6.0000     0.1268     4.0083     4.0083     0.0000
 71 O      8.4282     8.0000    -0.4282     2.0597     2.0597    -0.0000
 72 C      5.7007     6.0000     0.2993     3.9348     3.9348     0.0000
 73 O      8.3300     8.0000    -0.3300     2.1153     2.1153    -0.0000
 74 H      1.0161     1.0000    -0.0161     0.9990     0.9990    -0.0000
 75 H      0.8154     1.0000     0.1846     1.0226     1.0226    -0.0000
 76 H      1.0166     1.0000    -0.0166     1.0158     1.0158     0.0000
 77 H      0.8361     1.0000     0.1639     1.0999     1.0999    -0.0000
 78 H      1.0162     1.0000    -0.0162     1.0382     1.0382    -0.0000
 79 H      1.0030     1.0000    -0.0030     1.0141     1.0141     0.0000
 80 H      1.0057     1.0000    -0.0057     1.0456     1.0456    -0.0000
 81 H      0.9963     1.0000     0.0037     0.9938     0.9938    -0.0000
 82 H      0.8329     1.0000     0.1671     1.0243     1.0243     0.0000
 83 H      0.9890     1.0000     0.0110     0.9979     0.9979    -0.0000
 84 C      5.6678     6.0000     0.3322     4.0767     4.0767     0.0000
 85 C      5.8002     6.0000     0.1998     3.9947     3.9947     0.0000
 86 O      8.3054     8.0000    -0.3054     2.1539     2.1539     0.0000
 87 C      5.8305     6.0000     0.1695     4.0924     4.0924    -0.0000
 88 O      8.3252     8.0000    -0.3252     2.1231     2.1231    -0.0000
 89 C      5.8688     6.0000     0.1312     4.0178     4.0178    -0.0000
 90 O      8.3953     8.0000    -0.3953     2.0522     2.0522     0.0000
 91 C      5.8314     6.0000     0.1686     3.9654     3.9654    -0.0000
 92 O      8.4028     8.0000    -0.4028     2.0816     2.0816    -0.0000
 93 C      5.7117     6.0000     0.2883     3.9739     3.9739     0.0000
 94 O      8.3196     8.0000    -0.3196     2.1222     2.1222    -0.0000
 95 H      1.0099     1.0000    -0.0099     0.9976     0.9976     0.0000
 96 H      0.8129     1.0000     0.1871     1.0242     1.0242    -0.0000
 97 H      1.0160     1.0000    -0.0160     1.0165     1.0165    -0.0000
 98 H      0.8322     1.0000     0.1678     1.0963     1.0963    -0.0000
 99 H      1.0213     1.0000    -0.0213     1.0099     1.0099    -0.0000
100 H      1.0094     1.0000    -0.0094     1.0196     1.0196    -0.0000
101 H      1.0211     1.0000    -0.0211     0.9926     0.9926     0.0000
102 H      0.9980     1.0000     0.0020     1.0203     1.0203     0.0000
103 H      0.8253     1.0000     0.1747     1.0216     1.0216     0.0000
104 H      0.9824     1.0000     0.0176     1.0034     1.0034     0.0000
105 C      5.6641     6.0000     0.3359     4.0934     4.0934    -0.0000
106 C      5.7973     6.0000     0.2027     4.0133     4.0133    -0.0000
107 O      8.3047     8.0000    -0.3047     2.1572     2.1572     0.0000
108 C      5.8284     6.0000     0.1716     4.0903     4.0903    -0.0000
109 O      8.3247     8.0000    -0.3247     2.1241     2.1241     0.0000
110 C      5.8450     6.0000     0.1550     4.0098     4.0098     0.0000
111 O      8.4003     8.0000    -0.4003     2.0539     2.0539     0.0000
112 C      5.8693     6.0000     0.1307     4.0217     4.0217    -0.0000
113 O      8.4036     8.0000    -0.4036     2.0749     2.0749    -0.0000
114 C      5.6909     6.0000     0.3091     3.9550     3.9550     0.0000
115 O      8.3303     8.0000    -0.3303     2.1181     2.1181    -0.0000
116 H      1.0131     1.0000    -0.0131     0.9976     0.9976    -0.0000
117 H      0.8122     1.0000     0.1878     1.0253     1.0253    -0.0000
118 H      1.0164     1.0000    -0.0164     1.0148     1.0148    -0.0000
119 H      0.8315     1.0000     0.1685     1.0943     1.0943    -0.0000
120 H      1.0225     1.0000    -0.0225     1.0413     1.0413     0.0000
121 H      1.0092     1.0000    -0.0092     1.0052     1.0052    -0.0000
122 H      1.0008     1.0000    -0.0008     1.0202     1.0202    -0.0000
123 H      0.9977     1.0000     0.0023     0.9857     0.9857     0.0000
124 H      0.8352     1.0000     0.1648     1.0293     1.0293    -0.0000
125 H      0.9980     1.0000     0.0020     0.9973     0.9973     0.0000
126 C      5.6643     6.0000     0.3357     4.0928     4.0928    -0.0000
127 C      5.7921     6.0000     0.2079     4.0122     4.0122     0.0000
128 O      8.3023     8.0000    -0.3023     2.1563     2.1563     0.0000
129 C      5.8366     6.0000     0.1634     4.0874     4.0874    -0.0000
130 O      8.3224     8.0000    -0.3224     2.1262     2.1262    -0.0000
131 C      5.8466     6.0000     0.1534     4.0106     4.0106     0.0000
132 O      8.3998     8.0000    -0.3998     2.0530     2.0530    -0.0000
133 C      5.8724     6.0000     0.1276     4.0265     4.0265    -0.0000
134 O      8.3983     8.0000    -0.3983     2.0788     2.0788     0.0000
135 C      5.6969     6.0000     0.3031     3.9373     3.9373     0.0000
136 O      8.3358     8.0000    -0.3358     2.1142     2.1142    -0.0000
137 H      1.0141     1.0000    -0.0141     0.9971     0.9971    -0.0000
138 H      0.8128     1.0000     0.1872     1.0217     1.0217     0.0000
139 H      1.0106     1.0000    -0.0106     1.0157     1.0157    -0.0000
140 H      0.8340     1.0000     0.1660     1.0864     1.0864    -0.0000
141 H      1.0290     1.0000    -0.0290     1.0413     1.0413    -0.0000
142 H      1.0085     1.0000    -0.0085     1.0062     1.0062    -0.0000
143 H      0.9860     1.0000     0.0140     1.0288     1.0288     0.0000
144 H      0.9974     1.0000     0.0026     0.9882     0.9882     0.0000
145 H      0.8332     1.0000     0.1668     1.0270     1.0270    -0.0000
146 H      0.9901     1.0000     0.0099     0.9966     0.9966    -0.0000

  Mayer bond orders larger than 0.100000
B(  0-C ,  1-C ) :   0.9855 B(  0-C ,  8-O ) :   1.0321 B(  0-C , 11-H ) :   0.9187 
B(  0-C ,132-O ) :   0.9701 B(  1-C ,  2-O ) :   1.0424 B(  1-C ,  3-C ) :   0.9969 
B(  1-C , 12-H ) :   0.8982 B(  2-O , 13-H ) :   0.9641 B(  2-O ,140-H ) :   0.1015 
B(  3-C ,  4-O ) :   1.0169 B(  3-C ,  5-C ) :   0.9976 B(  3-C , 14-H ) :   0.8992 
B(  4-O , 15-H ) :   0.9651 B(  4-O , 33-H ) :   0.1075 B(  5-C ,  6-O ) :   0.9673 
B(  5-C ,  7-C ) :   1.0054 B(  5-C , 16-H ) :   0.8744 B(  6-O , 21-C ) :   0.9516 
B(  7-C ,  8-O ) :   0.9139 B(  7-C ,  9-C ) :   1.0067 B(  7-C , 17-H ) :   0.8918 
B(  9-C , 10-O ) :   1.0887 B(  9-C , 18-H ) :   0.9347 B(  9-C , 19-H ) :   0.9272 
B( 10-O , 20-H ) :   0.9215 B( 20-H , 29-O ) :   0.1043 B( 21-C , 22-C ) :   0.9877 
B( 21-C , 29-O ) :   1.0022 B( 21-C , 41-H ) :   0.9139 B( 22-C , 23-O ) :   1.0384 
B( 22-C , 24-C ) :   0.9975 B( 22-C , 32-H ) :   0.8884 B( 23-O , 33-H ) :   0.9331 
B( 24-C , 25-O ) :   1.1199 B( 24-C , 26-C ) :   1.0197 B( 24-C , 34-H ) :   0.8942 
B( 25-O , 35-H ) :   0.9634 B( 26-C , 27-O ) :   0.9501 B( 26-C , 28-C ) :   1.0249 
B( 26-C , 36-H ) :   0.8709 B( 27-O , 42-C ) :   1.0133 B( 28-C , 29-O ) :   0.8755 
B( 28-C , 30-C ) :   1.0090 B( 28-C , 37-H ) :   0.8940 B( 30-C , 31-O ) :   1.0704 
B( 30-C , 38-H ) :   0.9264 B( 30-C , 39-H ) :   0.9306 B( 31-O , 40-H ) :   0.9474 
B( 42-C , 43-C ) :   0.9980 B( 42-C , 50-O ) :   0.9620 B( 42-C , 62-H ) :   0.9129 
B( 43-C , 44-O ) :   1.1131 B( 43-C , 45-C ) :   1.0036 B( 43-C , 53-H ) :   0.8907 
B( 44-O , 54-H ) :   0.9636 B( 45-C , 46-O ) :   1.0996 B( 45-C , 47-C ) :   1.0238 
B( 45-C , 55-H ) :   0.9002 B( 46-O , 56-H ) :   0.9331 B( 47-C , 48-O ) :   0.9313 
B( 47-C , 49-C ) :   1.0232 B( 47-C , 57-H ) :   0.8722 B( 48-O , 63-C ) :   1.0043 
B( 49-C , 50-O ) :   0.9167 B( 49-C , 51-C ) :   1.0012 B( 49-C , 58-H ) :   0.8789 
B( 51-C , 52-O ) :   1.0712 B( 51-C , 59-H ) :   0.9337 B( 51-C , 60-H ) :   0.9262 
B( 52-O , 61-H ) :   0.9609 B( 56-H , 65-O ) :   0.1011 B( 63-C , 64-C ) :   1.0029 
B( 63-C , 71-O ) :   0.9677 B( 63-C , 83-H ) :   0.9144 B( 64-C , 65-O ) :   1.0571 
B( 64-C , 66-C ) :   0.9984 B( 64-C , 74-H ) :   0.8980 B( 65-O , 75-H ) :   0.9517 
B( 66-C , 67-O ) :   1.1187 B( 66-C , 68-C ) :   1.0306 B( 66-C , 76-H ) :   0.8949 
B( 67-O , 77-H ) :   0.9197 B( 68-C , 69-O ) :   0.9511 B( 68-C , 70-C ) :   1.0026 
B( 68-C , 78-H ) :   0.8759 B( 69-O , 84-C ) :   0.9660 B( 70-C , 71-O ) :   0.9170 
B( 70-C , 72-C ) :   1.0438 B( 70-C , 79-H ) :   0.8800 B( 72-C , 73-O ) :   1.0225 
B( 72-C , 80-H ) :   0.9170 B( 72-C , 81-H ) :   0.9346 B( 73-O , 82-H ) :   0.9750 
B( 77-H , 86-O ) :   0.1257 B( 84-C , 85-C ) :   1.0071 B( 84-C , 92-O ) :   1.0178 
B( 84-C ,104-H ) :   0.9199 B( 85-C , 86-O ) :   1.0266 B( 85-C , 87-C ) :   1.0028 
B( 85-C , 95-H ) :   0.8973 B( 86-O , 96-H ) :   0.9475 B( 87-C , 88-O ) :   1.1042 
B( 87-C , 89-C ) :   1.0186 B( 87-C , 97-H ) :   0.8967 B( 88-O , 98-H ) :   0.9175 
B( 89-C , 90-O ) :   0.9408 B( 89-C , 91-C ) :   0.9997 B( 89-C , 99-H ) :   0.8785 
B( 90-O ,105-C ) :   0.9839 B( 91-C , 92-O ) :   0.9288 B( 91-C , 93-C ) :   1.0278 
B( 91-C ,100-H ) :   0.8861 B( 93-C , 94-O ) :   1.0676 B( 93-C ,101-H ) :   0.9262 
B( 93-C ,102-H ) :   0.9305 B( 94-O ,103-H ) :   0.9735 B( 98-H ,107-O ) :   0.1284 
B(105-C ,106-C ) :   1.0093 B(105-C ,113-O ) :   1.0231 B(105-C ,125-H ) :   0.9142 
B(106-C ,107-O ) :   1.0365 B(106-C ,108-C ) :   1.0043 B(106-C ,116-H ) :   0.8962 
B(107-O ,117-H ) :   0.9441 B(108-C ,109-O ) :   1.1021 B(108-C ,110-C ) :   1.0235 
B(108-C ,118-H ) :   0.8970 B(109-O ,119-H ) :   0.9200 B(110-C ,111-O ) :   0.9432 
B(110-C ,112-C ) :   1.0100 B(110-C ,120-H ) :   0.8719 B(111-O ,126-C ) :   0.9804 
B(112-C ,113-O ) :   0.9201 B(112-C ,114-C ) :   1.0398 B(112-C ,121-H ) :   0.8867 
B(114-C ,115-O ) :   1.0271 B(114-C ,122-H ) :   0.9283 B(114-C ,123-H ) :   0.9356 
B(115-O ,124-H ) :   0.9746 B(119-H ,128-O ) :   0.1220 B(126-C ,127-C ) :   1.0080 
B(126-C ,134-O ) :   1.0225 B(126-C ,146-H ) :   0.9163 B(127-C ,128-O ) :   1.0404 
B(127-C ,129-C ) :   1.0035 B(127-C ,137-H ) :   0.8966 B(128-O ,138-H ) :   0.9478 
B(129-C ,130-O ) :   1.0945 B(129-C ,131-C ) :   1.0259 B(129-C ,139-H ) :   0.9008 
B(130-O ,140-H ) :   0.9299 B(131-C ,132-O ) :   0.9470 B(131-C ,133-C ) :   1.0063 
B(131-C ,141-H ) :   0.8708 B(133-C ,134-O ) :   0.9279 B(133-C ,135-C ) :   1.0426 
B(133-C ,142-H ) :   0.8835 B(135-C ,136-O ) :   1.0172 B(135-C ,143-H ) :   0.9224 
B(135-C ,144-H ) :   0.9361 B(136-O ,145-H ) :   0.9747 

-------
TIMINGS
-------

Total SCF time: 0 days 0 hours 29 min 52 sec 

Total time                  ....    1792.343 sec
Sum of individual times     ....    1784.692 sec  ( 99.6%)

Fock matrix formation       ....    1659.489 sec  ( 92.6%)
  Split-RI-J                ....     184.448 sec  ( 11.1% of F)
  Chain of spheres X        ....    1410.848 sec  ( 85.0% of F)
  XC integration            ....      62.226 sec  (  3.7% of F)
    Basis function eval.    ....      25.592 sec  ( 41.1% of XC)
    Density eval.           ....      18.315 sec  ( 29.4% of XC)
    XC-Functional eval.     ....       2.979 sec  (  4.8% of XC)
    XC-Potential eval.      ....      12.218 sec  ( 19.6% of XC)
Diagonalization             ....       6.065 sec  (  0.3%)
Density matrix formation    ....       0.902 sec  (  0.1%)
Population analysis         ....       0.901 sec  (  0.1%)
Initial guess               ....      13.839 sec  (  0.8%)
Orbital Transformation      ....       0.000 sec  (  0.0%)
Orbital Orthonormalization  ....       0.000 sec  (  0.0%)
DIIS solution               ....       2.560 sec  (  0.1%)
SOSCF solution              ....       3.698 sec  (  0.2%)
Grid generation             ....      97.238 sec  (  5.4%)

Maximum memory used throughout the entire SCF-calculation: 451.0 MB

-------------------------   --------------------
FINAL SINGLE POINT ENERGY     -4269.901681034908
-------------------------   --------------------


                            ***************************************
                            *     ORCA property calculations      *
                            ***************************************

                                    ---------------------
                                    Active property flags
                                    ---------------------
   (+) Dipole Moment


------------------------------------------------------------------------------
                       ORCA ELECTRIC PROPERTIES CALCULATION
------------------------------------------------------------------------------

Dipole Moment Calculation                       ... on
Quadrupole Moment Calculation                   ... off
Polarizability Calculation                      ... off
GBWName                                         ... cyclo3.gbw
Electron density                                ... cyclo3.scfp
The origin for moment calculation is the CENTER OF MASS  = (110.463256, 22.637514 16.778787)

-------------
DIPOLE MOMENT
-------------
                                X             Y             Z
Electronic contribution:     11.61604      -4.48510      -2.46974
Nuclear contribution   :    -11.91013       2.71032      -0.55105
                        -----------------------------------------
Total Dipole Moment    :     -0.29409      -1.77478      -3.02078
                        -----------------------------------------
Magnitude (a.u.)       :      3.51589
Magnitude (Debye)      :      8.93667



--------------------
Rotational spectrum 
--------------------
 
Rotational constants in cm-1:     0.000773     0.000714     0.000438 
Rotational constants in MHz :    23.163059    21.395491    13.138642 

 Dipole components along the rotational axes: 
x,y,z [a.u.] :    -2.294146    -2.187513    -1.520899 
x,y,z [Debye]:    -5.831257    -5.560217    -3.865818 

 

Timings for individual modules:

Sum of individual times         ...     1804.480 sec (=  30.075 min)
GTO integral calculation        ...       11.706 sec (=   0.195 min)   0.6 %
SCF iterations                  ...     1792.774 sec (=  29.880 min)  99.4 %
                             ****ORCA TERMINATED NORMALLY****
TOTAL RUN TIME: 0 days 0 hours 30 minutes 7 seconds 678 msec
