
                                 *****************
                                 * O   R   C   A *
                                 *****************

                                            #,                                       
                                            ###                                      
                                            ####                                     
                                            #####                                    
                                            ######                                   
                                           ########,                                 
                                     ,,################,,,,,                         
                               ,,#################################,,                 
                          ,,##########################################,,             
                       ,#########################################, ''#####,          
                    ,#############################################,,   '####,        
                  ,##################################################,,,,####,       
                ,###########''''           ''''###############################       
              ,#####''   ,,,,##########,,,,          '''####'''          '####       
            ,##' ,,,,###########################,,,                        '##       
           ' ,,###''''                  '''############,,,                           
         ,,##''                                '''############,,,,        ,,,,,,###''
      ,#''                                            '''#######################'''  
     '                                                          ''''####''''         
             ,#######,   #######,   ,#######,      ##                                
            ,#'     '#,  ##    ##  ,#'     '#,    #''#        ######   ,####,        
            ##       ##  ##   ,#'  ##            #'  '#       #        #'  '#        
            ##       ##  #######   ##           ,######,      #####,   #    #        
            '#,     ,#'  ##    ##  '#,     ,#' ,#      #,         ##   #,  ,#        
             '#######'   ##     ##  '#######'  #'      '#     #####' # '####'        



                  #######################################################
                  #                        -***-                        #
                  #          Department of theory and spectroscopy      #
                  #    Directorship and core code : Frank Neese         #
                  #        Max Planck Institute fuer Kohlenforschung    #
                  #                Kaiser Wilhelm Platz 1               #
                  #                 D-45470 Muelheim/Ruhr               #
                  #                      Germany                        #
                  #                                                     #
                  #                  All rights reserved                #
                  #                        -***-                        #
                  #######################################################


                         Program Version 5.0.4 -  RELEASE  -


 With contributions from (in alphabetic order):
   Daniel Aravena         : Magnetic Suceptibility
   Michael Atanasov       : Ab Initio Ligand Field Theory (pilot matlab implementation)
   Alexander A. Auer      : GIAO ZORA, VPT2 properties, NMR spectrum
   Ute Becker             : Parallelization
   Giovanni Bistoni       : ED, misc. LED, open-shell LED, HFLD
   Martin Brehm           : Molecular dynamics
   Dmytro Bykov           : SCF Hessian
   Vijay G. Chilkuri      : MRCI spin determinant printing, contributions to CSF-ICE
   Dipayan Datta          : RHF DLPNO-CCSD density
   Achintya Kumar Dutta   : EOM-CC, STEOM-CC
   Dmitry Ganyushin       : Spin-Orbit,Spin-Spin,Magnetic field MRCI
   Miquel Garcia          : C-PCM and meta-GGA Hessian, CC/C-PCM, Gaussian charge scheme
   Yang Guo               : DLPNO-NEVPT2, F12-NEVPT2, CIM, IAO-localization
   Andreas Hansen         : Spin unrestricted coupled pair/coupled cluster methods
   Benjamin Helmich-Paris : MC-RPA, TRAH-SCF, COSX integrals
   Lee Huntington         : MR-EOM, pCC
   Robert Izsak           : Overlap fitted RIJCOSX, COSX-SCS-MP3, EOM
   Marcus Kettner         : VPT2
   Christian Kollmar      : KDIIS, OOCD, Brueckner-CCSD(T), CCSD density, CASPT2, CASPT2-K
   Simone Kossmann        : Meta GGA functionals, TD-DFT gradient, OOMP2, MP2 Hessian
   Martin Krupicka        : Initial AUTO-CI
   Lucas Lang             : DCDCAS
   Marvin Lechner         : AUTO-CI (C++ implementation), FIC-MRCC
   Dagmar Lenk            : GEPOL surface, SMD
   Dimitrios Liakos       : Extrapolation schemes; Compound Job, initial MDCI parallelization
   Dimitrios Manganas     : Further ROCIS development; embedding schemes
   Dimitrios Pantazis     : SARC Basis sets
   Anastasios Papadopoulos: AUTO-CI, single reference methods and gradients
   Taras Petrenko         : DFT Hessian,TD-DFT gradient, ASA, ECA, R-Raman, ABS, FL, XAS/XES, NRVS
   Peter Pinski           : DLPNO-MP2, DLPNO-MP2 Gradient
   Christoph Reimann      : Effective Core Potentials
   Marius Retegan         : Local ZFS, SOC
   Christoph Riplinger    : Optimizer, TS searches, QM/MM, DLPNO-CCSD(T), (RO)-DLPNO pert. Triples
   Tobias Risthaus        : Range-separated hybrids, TD-DFT gradient, RPA, STAB
   Michael Roemelt        : Original ROCIS implementation
   Masaaki Saitow         : Open-shell DLPNO-CCSD energy and density
   Barbara Sandhoefer     : DKH picture change effects
   Avijit Sen             : IP-ROCIS
   Kantharuban Sivalingam : CASSCF convergence, NEVPT2, FIC-MRCI
   Bernardo de Souza      : ESD, SOC TD-DFT
   Georgi Stoychev        : AutoAux, RI-MP2 NMR, DLPNO-MP2 response
   Willem Van den Heuvel  : Paramagnetic NMR
   Boris Wezisla          : Elementary symmetry handling
   Frank Wennmohs         : Technical directorship


 We gratefully acknowledge several colleagues who have allowed us to
 interface, adapt or use parts of their codes:
   Stefan Grimme, W. Hujo, H. Kruse, P. Pracht,  : VdW corrections, initial TS optimization,
                  C. Bannwarth, S. Ehlert          DFT functionals, gCP, sTDA/sTD-DF
   Ed Valeev, F. Pavosevic, A. Kumar             : LibInt (2-el integral package), F12 methods
   Garnet Chan, S. Sharma, J. Yang, R. Olivares  : DMRG
   Ulf Ekstrom                                   : XCFun DFT Library
   Mihaly Kallay                                 : mrcc  (arbitrary order and MRCC methods)
   Jiri Pittner, Ondrej Demel                    : Mk-CCSD
   Frank Weinhold                                : gennbo (NPA and NBO analysis)
   Christopher J. Cramer and Donald G. Truhlar   : smd solvation model
   Lars Goerigk                                  : TD-DFT with DH, B97 family of functionals
   V. Asgeirsson, H. Jonsson                     : NEB implementation
   FAccTs GmbH                                   : IRC, NEB, NEB-TS, DLPNO-Multilevel, CI-OPT
                                                   MM, QMMM, 2- and 3-layer-ONIOM, Crystal-QMMM,
                                                   LR-CPCM, SF, NACMEs, symmetry and pop. for TD-DFT,
                                                   nearIR, NL-DFT gradient (VV10), updates on ESD,
                                                   ML-optimized integration grids
   S Lehtola, MJT Oliveira, MAL Marques          : LibXC Library
   Liviu Ungur et al                             : ANISO software


 Your calculation uses the libint2 library for the computation of 2-el integrals
 For citations please refer to: http://libint.valeyev.net

 Your ORCA version has been built with support for libXC version: 5.1.0
 For citations please refer to: https://tddft.org/programs/libxc/

 This ORCA versions uses:
   CBLAS   interface :  Fast vector & matrix operations
   LAPACKE interface :  Fast linear algebra routines
   SCALAPACK package :  Parallel linear algebra routines
   Shared memory     :  Shared parallel matrices
   BLAS/LAPACK       :  OpenBLAS 0.3.15  USE64BITINT DYNAMIC_ARCH NO_AFFINITY Haswell SINGLE_THREADED
        Core in use  :  Haswell
   Copyright (c) 2011-2014, The OpenBLAS Project


================================================================================

----- Orbital basis set information -----
Your calculation utilizes the basis: def2-SVP
   F. Weigend and R. Ahlrichs, Phys. Chem. Chem. Phys. 7, 3297 (2005).

----- AuxJ basis set information -----
Your calculation utilizes the auxiliary basis: def2/J
   F. Weigend, Phys. Chem. Chem. Phys. 8, 1057 (2006).

================================================================================
                                        WARNINGS
                       Please study these warnings very carefully!
================================================================================


INFO   : the flag for use of the SHARK integral package has been found!

================================================================================
                                       INPUT FILE
================================================================================
NAME = k/k.inp
|  1> # avogadro generated ORCA input file 
|  2> # Basic Mode
|  3> # 
|  4> !B3LYP DEF2-SVP
|  5> 
|  6> %PAL NPROCS 3 END
|  7> 
|  8> * xyz 0 1
|  9> O         -0.40400       -2.13600       -2.42300
| 10> O          2.21800        0.48900       -0.24200
| 11> O         -8.17900        0.30800       -1.35100
| 12> O          3.54900        1.73400        0.75100
| 13> O          2.63200        2.03800       -2.81700
| 14> O          3.77800        4.62700       -2.30700
| 15> O          5.17900        4.99000        0.16700
| 16> O          5.22800        2.03800        3.13000
| 17> C         -2.31800       -0.03200        0.81100
| 18> C         -1.11700       -0.99100        1.08500
| 19> C         -3.19600       -0.74600       -0.26600
| 20> C         -4.56600       -0.06600       -0.57200
| 21> C         -0.28900       -1.10100       -0.23300
| 22> C         -5.29400        0.07800        0.78900
| 23> C         -3.16200        0.18600        2.07900
| 24> C          1.10700       -1.58900        0.19700
| 25> C         -2.40400       -1.04500       -1.54000
| 26> C         -1.14000       -1.88700       -1.24500
| 27> C         -0.06100       -0.49700        2.08400
| 28> C         -4.45000        0.92000        1.74300
| 29> C         -6.77600        0.52800        0.71800
| 30> C          1.17800       -1.30900        1.71900
| 31> C         -5.40300       -0.98900       -1.49400
| 32> C         -1.77800        1.33700        0.38600
| 33> C         -1.62000       -2.34600        1.60200
| 34> C         -4.36000        1.26900       -1.28200
| 35> C          2.32200       -0.92600       -0.53000
| 36> C         -7.55300       -0.38300       -0.29800
| 37> C         -6.65700       -1.51500       -0.82300
| 38> C         -7.39000        0.30000        2.10800
| 39> C         -6.93600        2.01100        0.39300
| 40> C          3.63200       -1.51400        0.05900
| 41> C          2.29400       -1.14400       -2.04500
| 42> C          3.77800       -3.00600       -0.19200
| 43> C          3.31700        1.29000       -0.57200
| 44> C          2.89900        2.46800       -1.51100
| 45> C          4.85700       -3.59200        0.64400
| 46> C          4.02300        3.54200       -1.45400
| 47> C          4.56900        2.72000        0.87100
| 48> C          4.21900        3.97700        0.02700
| 49> C          5.83000       -4.38800        0.18100
| 50> C          4.64500        3.06300        2.37500
| 51> C          5.96600       -4.78100       -1.24500
| 52> C          6.86300       -4.95000        1.09400
| 53> H         -3.45900       -1.74800        0.18000
| 54> H         -0.15900       -0.06900       -0.66200
| 55> H         -5.33900       -0.96300        1.22000
| 56> H         -3.37400       -0.79300        2.56500
| 57> H         -2.57500        0.76200        2.82200
| 58> H          1.20900       -2.69000        0.00800
| 59> H         -2.15200       -0.09100       -2.05700
| 60> H         -3.06600       -1.59800       -2.24600
| 61> H         -1.44000       -2.87700       -0.80500
| 62> H         -0.36900       -0.64300        3.13500
| 63> H          0.11200        0.59400        1.96000
| 64> H         -5.03000        1.14700        2.66300
| 65> H         -4.19900        1.89700        1.26200
| 66> H          2.11800       -0.79300        2.00500
| 67> H          1.19200       -2.26700        2.27700
| 68> H         -5.68000       -0.45100       -2.42600
| 69> H         -4.78500       -1.84500       -1.84900
| 70> H         -1.32700        1.30400       -0.61800
| 71> H         -2.57500        2.10100        0.38700
| 72> H         -0.99300        1.67500        1.08400
| 73> H         -2.26800       -2.20300        2.48200
| 74> H         -0.79300       -3.00800        1.89100
| 75> H         -2.21500       -2.87700        0.83800
| 76> H         -5.29200        1.65200       -1.72700
| 77> H         -3.60300        1.17200       -2.07600
| 78> H         -4.01000        2.04200       -0.57200
| 79> H         -8.44800       -0.82700        0.20100
| 80> H         -7.22400       -2.15100       -1.53100
| 81> H         -6.38000       -2.17000        0.03000
| 82> H         -6.78900        0.80800        2.88200
| 83> H         -7.42400       -0.76600        2.37100
| 84> H         -8.41400        0.69000        2.16700
| 85> H         -6.48900        2.27500       -0.57900
| 86> H         -6.44900        2.63700        1.15400
| 87> H         -7.99500        2.30000        0.36000
| 88> H         -1.01500       -2.50500       -3.04700
| 89> H          3.64700       -1.30100        1.15300
| 90> H          4.50400       -0.96800       -0.36700
| 91> H          2.11500       -2.20000       -2.28800
| 92> H          1.50300       -0.55000       -2.52400
| 93> H          3.24600       -0.85700       -2.51300
| 94> H         -7.49800        0.72600       -1.86600
| 95> H          2.81400       -3.51700        0.04200
| 96> H          3.96500       -3.20200       -1.27300
| 97> H          4.20300        0.72600       -0.97500
| 98> H          1.91500        2.89500       -1.20700
| 99> H          4.81800       -3.34200        1.71300
|100> H          4.97500        3.14000       -1.87700
|101> H          5.53900        2.28500        0.52200
|102> H          3.30200        4.47400        0.42200
|103> H          3.43200        1.66600       -3.17100
|104> H          5.32400        3.91800        2.54200
|105> H          3.64700        3.33300        2.77300
|106> H          2.96500        5.03300       -2.03000
|107> H          6.97200       -4.55100       -1.62000
|108> H          5.23900       -4.26000       -1.88900
|109> H          5.80500       -5.86100       -1.36600
|110> H          6.71300       -4.65000        2.13900
|111> H          7.86600       -4.61800        0.79300
|112> H          6.85300       -6.04800        1.05900
|113> H          5.98100        4.68800       -0.24300
|114> H          4.65500        1.28300        3.07400
|115> *
|116> 
|117> 
|118> 
|119>                          ****END OF INPUT****
================================================================================

                       ****************************
                       * Single Point Calculation *
                       ****************************

---------------------------------
CARTESIAN COORDINATES (ANGSTROEM)
---------------------------------
  O     -0.404000   -2.136000   -2.423000
  O      2.218000    0.489000   -0.242000
  O     -8.179000    0.308000   -1.351000
  O      3.549000    1.734000    0.751000
  O      2.632000    2.038000   -2.817000
  O      3.778000    4.627000   -2.307000
  O      5.179000    4.990000    0.167000
  O      5.228000    2.038000    3.130000
  C     -2.318000   -0.032000    0.811000
  C     -1.117000   -0.991000    1.085000
  C     -3.196000   -0.746000   -0.266000
  C     -4.566000   -0.066000   -0.572000
  C     -0.289000   -1.101000   -0.233000
  C     -5.294000    0.078000    0.789000
  C     -3.162000    0.186000    2.079000
  C      1.107000   -1.589000    0.197000
  C     -2.404000   -1.045000   -1.540000
  C     -1.140000   -1.887000   -1.245000
  C     -0.061000   -0.497000    2.084000
  C     -4.450000    0.920000    1.743000
  C     -6.776000    0.528000    0.718000
  C      1.178000   -1.309000    1.719000
  C     -5.403000   -0.989000   -1.494000
  C     -1.778000    1.337000    0.386000
  C     -1.620000   -2.346000    1.602000
  C     -4.360000    1.269000   -1.282000
  C      2.322000   -0.926000   -0.530000
  C     -7.553000   -0.383000   -0.298000
  C     -6.657000   -1.515000   -0.823000
  C     -7.390000    0.300000    2.108000
  C     -6.936000    2.011000    0.393000
  C      3.632000   -1.514000    0.059000
  C      2.294000   -1.144000   -2.045000
  C      3.778000   -3.006000   -0.192000
  C      3.317000    1.290000   -0.572000
  C      2.899000    2.468000   -1.511000
  C      4.857000   -3.592000    0.644000
  C      4.023000    3.542000   -1.454000
  C      4.569000    2.720000    0.871000
  C      4.219000    3.977000    0.027000
  C      5.830000   -4.388000    0.181000
  C      4.645000    3.063000    2.375000
  C      5.966000   -4.781000   -1.245000
  C      6.863000   -4.950000    1.094000
  H     -3.459000   -1.748000    0.180000
  H     -0.159000   -0.069000   -0.662000
  H     -5.339000   -0.963000    1.220000
  H     -3.374000   -0.793000    2.565000
  H     -2.575000    0.762000    2.822000
  H      1.209000   -2.690000    0.008000
  H     -2.152000   -0.091000   -2.057000
  H     -3.066000   -1.598000   -2.246000
  H     -1.440000   -2.877000   -0.805000
  H     -0.369000   -0.643000    3.135000
  H      0.112000    0.594000    1.960000
  H     -5.030000    1.147000    2.663000
  H     -4.199000    1.897000    1.262000
  H      2.118000   -0.793000    2.005000
  H      1.192000   -2.267000    2.277000
  H     -5.680000   -0.451000   -2.426000
  H     -4.785000   -1.845000   -1.849000
  H     -1.327000    1.304000   -0.618000
  H     -2.575000    2.101000    0.387000
  H     -0.993000    1.675000    1.084000
  H     -2.268000   -2.203000    2.482000
  H     -0.793000   -3.008000    1.891000
  H     -2.215000   -2.877000    0.838000
  H     -5.292000    1.652000   -1.727000
  H     -3.603000    1.172000   -2.076000
  H     -4.010000    2.042000   -0.572000
  H     -8.448000   -0.827000    0.201000
  H     -7.224000   -2.151000   -1.531000
  H     -6.380000   -2.170000    0.030000
  H     -6.789000    0.808000    2.882000
  H     -7.424000   -0.766000    2.371000
  H     -8.414000    0.690000    2.167000
  H     -6.489000    2.275000   -0.579000
  H     -6.449000    2.637000    1.154000
  H     -7.995000    2.300000    0.360000
  H     -1.015000   -2.505000   -3.047000
  H      3.647000   -1.301000    1.153000
  H      4.504000   -0.968000   -0.367000
  H      2.115000   -2.200000   -2.288000
  H      1.503000   -0.550000   -2.524000
  H      3.246000   -0.857000   -2.513000
  H     -7.498000    0.726000   -1.866000
  H      2.814000   -3.517000    0.042000
  H      3.965000   -3.202000   -1.273000
  H      4.203000    0.726000   -0.975000
  H      1.915000    2.895000   -1.207000
  H      4.818000   -3.342000    1.713000
  H      4.975000    3.140000   -1.877000
  H      5.539000    2.285000    0.522000
  H      3.302000    4.474000    0.422000
  H      3.432000    1.666000   -3.171000
  H      5.324000    3.918000    2.542000
  H      3.647000    3.333000    2.773000
  H      2.965000    5.033000   -2.030000
  H      6.972000   -4.551000   -1.620000
  H      5.239000   -4.260000   -1.889000
  H      5.805000   -5.861000   -1.366000
  H      6.713000   -4.650000    2.139000
  H      7.866000   -4.618000    0.793000
  H      6.853000   -6.048000    1.059000
  H      5.981000    4.688000   -0.243000
  H      4.655000    1.283000    3.074000

----------------------------
CARTESIAN COORDINATES (A.U.)
----------------------------
  NO LB      ZA    FRAG     MASS         X           Y           Z
   0 O     8.0000    0    15.999   -0.763449   -4.036455   -4.578806
   1 O     8.0000    0    15.999    4.191413    0.924076   -0.457314
   2 O     8.0000    0    15.999  -15.456070    0.582036   -2.553020
   3 O     8.0000    0    15.999    6.706638    3.276785    1.419184
   4 O     8.0000    0    15.999    4.973759    3.851262   -5.323359
   5 O     8.0000    0    15.999    7.139385    8.743763   -4.359598
   6 O     8.0000    0    15.999    9.786892    9.429733    0.315584
   7 O     8.0000    0    15.999    9.879488    3.851262    5.914843
   8 C     6.0000    0    12.011   -4.380385   -0.060471    1.532568
   9 C     6.0000    0    12.011   -2.110824   -1.872719    2.050353
  10 C     6.0000    0    12.011   -6.039565   -1.409736   -0.502667
  11 C     6.0000    0    12.011   -8.628490   -0.124722   -1.080923
  12 C     6.0000    0    12.011   -0.546131   -2.080588   -0.440306
  13 C     6.0000    0    12.011  -10.004210    0.147399    1.490994
  14 C     6.0000    0    12.011   -5.975314    0.351489    3.928741
  15 C     6.0000    0    12.011    2.091927   -3.002775    0.372276
  16 C     6.0000    0    12.011   -4.542902   -1.974764   -2.910178
  17 C     6.0000    0    12.011   -2.154288   -3.565913   -2.352709
  18 C     6.0000    0    12.011   -0.115273   -0.939194    3.938189
  19 C     6.0000    0    12.011   -8.409281    1.738548    3.293793
  20 C     6.0000    0    12.011  -12.804784    0.997775    1.356823
  21 C     6.0000    0    12.011    2.226097   -2.473652    3.248439
  22 C     6.0000    0    12.011  -10.210190   -1.868939   -2.823251
  23 C     6.0000    0    12.011   -3.359933    2.526564    0.729434
  24 C     6.0000    0    12.011   -3.061356   -4.433298    3.027341
  25 C     6.0000    0    12.011   -8.239206    2.398062   -2.422629
  26 C     6.0000    0    12.011    4.387944   -1.749886   -1.001555
  27 C     6.0000    0    12.011  -14.273101   -0.723765   -0.563138
  28 C     6.0000    0    12.011  -12.579907   -2.862935   -1.555245
  29 C     6.0000    0    12.011  -13.965076    0.566918    3.983543
  30 C     6.0000    0    12.011  -13.107140    3.800239    0.742662
  31 C     6.0000    0    12.011    6.863485   -2.861045    0.111494
  32 C     6.0000    0    12.011    4.335032   -2.161847   -3.864490
  33 C     6.0000    0    12.011    7.139385   -5.680517   -0.362827
  34 C     6.0000    0    12.011    6.268222    2.437747   -1.080923
  35 C     6.0000    0    12.011    5.478316    4.663844   -2.855376
  36 C     6.0000    0    12.011    9.178400   -6.787896    1.216984
  37 C     6.0000    0    12.011    7.602368    6.693410   -2.747662
  38 C     6.0000    0    12.011    8.634159    5.140055    1.645951
  39 C     6.0000    0    12.011    7.972755    7.515441    0.051023
  40 C     6.0000    0    12.011   11.017103   -8.292118    0.342040
  41 C     6.0000    0    12.011    8.777778    5.788231    4.488100
  42 C     6.0000    0    12.011   11.274106   -9.034781   -2.352709
  43 C     6.0000    0    12.011   12.969190   -9.354144    2.067360
  44 H     1.0000    0     1.008   -6.536563   -3.303241    0.340151
  45 H     1.0000    0     1.008   -0.300466   -0.130391   -1.250999
  46 H     1.0000    0     1.008  -10.089248   -1.819806    2.305466
  47 H     1.0000    0     1.008   -6.375936   -1.498553    4.847148
  48 H     1.0000    0     1.008   -4.866045    1.439971    5.332807
  49 H     1.0000    0     1.008    2.284679   -5.083363    0.015118
  50 H     1.0000    0     1.008   -4.066691   -0.171965   -3.887167
  51 H     1.0000    0     1.008   -5.793900   -3.019782   -4.244325
  52 H     1.0000    0     1.008   -2.721206   -5.436742   -1.521230
  53 H     1.0000    0     1.008   -0.697309   -1.215094    5.924291
  54 H     1.0000    0     1.008    0.211649    1.122497    3.703863
  55 H     1.0000    0     1.008   -9.505322    2.167516    5.032341
  56 H     1.0000    0     1.008   -7.934960    3.584810    2.384834
  57 H     1.0000    0     1.008    4.002440   -1.498553    3.788901
  58 H     1.0000    0     1.008    2.252554   -4.284009    4.302906
  59 H     1.0000    0     1.008  -10.733644   -0.852266   -4.584476
  60 H     1.0000    0     1.008   -9.042340   -3.486545   -3.494104
  61 H     1.0000    0     1.008   -2.507667    2.464203   -1.167851
  62 H     1.0000    0     1.008   -4.866045    3.970315    0.731324
  63 H     1.0000    0     1.008   -1.876498    3.165291    2.048463
  64 H     1.0000    0     1.008   -4.285899   -4.163067    4.690300
  65 H     1.0000    0     1.008   -1.498553   -5.684296    3.573472
  66 H     1.0000    0     1.008   -4.185743   -5.436742    1.583591
  67 H     1.0000    0     1.008  -10.000431    3.121828   -3.263557
  68 H     1.0000    0     1.008   -6.808683    2.214759   -3.923071
  69 H     1.0000    0     1.008   -7.577802    3.858821   -1.080923
  70 H     1.0000    0     1.008  -15.964406   -1.562804    0.379835
  71 H     1.0000    0     1.008  -13.651382   -4.064801   -2.893171
  72 H     1.0000    0     1.008  -12.056453   -4.100706    0.056692
  73 H     1.0000    0     1.008  -12.829351    1.526899    5.446191
  74 H     1.0000    0     1.008  -14.029327   -1.447530    4.480541
  75 H     1.0000    0     1.008  -15.900156    1.303911    4.095037
  76 H     1.0000    0     1.008  -12.262433    4.299127   -1.094151
  77 H     1.0000    0     1.008  -12.186844    4.983208    2.180744
  78 H     1.0000    0     1.008  -15.108360    4.346370    0.680301
  79 H     1.0000    0     1.008   -1.918072   -4.733764   -5.757996
  80 H     1.0000    0     1.008    6.891831   -2.458534    2.178854
  81 H     1.0000    0     1.008    8.511327   -1.829255   -0.693529
  82 H     1.0000    0     1.008    3.996771   -4.157397   -4.323693
  83 H     1.0000    0     1.008    2.840258   -1.039349   -4.769669
  84 H     1.0000    0     1.008    6.134051   -1.619495   -4.748882
  85 H     1.0000    0     1.008  -14.169167    1.371941   -3.526229
  86 H     1.0000    0     1.008    5.317689   -6.646167    0.079368
  87 H     1.0000    0     1.008    7.492764   -6.050903   -2.405621
  88 H     1.0000    0     1.008    7.942519    1.371941   -1.842483
  89 H     1.0000    0     1.008    3.618826    5.470757   -2.280899
  90 H     1.0000    0     1.008    9.104701   -6.315465    3.237101
  91 H     1.0000    0     1.008    9.401388    5.933740   -3.547016
  92 H     1.0000    0     1.008   10.467193    4.318024    0.986437
  93 H     1.0000    0     1.008    6.239876    8.454635    0.797464
  94 H     1.0000    0     1.008    6.485540    3.148284   -5.992322
  95 H     1.0000    0     1.008   10.060902    7.403947    4.803684
  96 H     1.0000    0     1.008    6.891831    6.298457    5.240211
  97 H     1.0000    0     1.008    5.603038    9.510992   -3.836144
  98 H     1.0000    0     1.008   13.175171   -8.600144   -3.061356
  99 H     1.0000    0     1.008    9.900275   -8.050233   -3.569693
 100 H     1.0000    0     1.008   10.969860  -11.075685   -2.581366
 101 H     1.0000    0     1.008   12.685732   -8.787227    4.042124
 102 H     1.0000    0     1.008   14.864586   -8.726755    1.498553
 103 H     1.0000    0     1.008   12.950293  -11.429064    2.001220
 104 H     1.0000    0     1.008   11.302452    8.859036   -0.459203
 105 H     1.0000    0     1.008    8.796675    2.424519    5.809018

--------------------------------
INTERNAL COORDINATES (ANGSTROEM)
--------------------------------
 O      0   0   0     0.000000000000     0.00000000     0.00000000
 O      1   0   0     4.303750689805     0.00000000     0.00000000
 O      1   2   0     8.220276455205   109.19634219     0.00000000
 O      2   1   3     2.075484280837   177.48164570   205.89561941
 O      2   1   3     3.033384578322    87.96121611   263.93826746
 O      5   2   1     2.876862353329   111.31124710   163.86565834
 O      6   5   2     2.866225043502   117.49715120    21.45075158
 O      4   2   5     2.927643762482   144.97009018   197.15131845
 C      1   2   3     4.306851286033    65.93660012   337.65506917
 C      9   1   2     1.561139968100    59.32329862   299.85927594
 C      9   1   2     1.562244859169    60.58233963   165.56267117
 C     11   9   1     1.559787164968   115.44389196   212.00463407
 C     10   9   1     1.560387131452   107.65474315    23.81325022
 C     12  11   9     1.550174506306   106.30439688   305.58997249
 C      9   1   2     1.538728046147   158.70986403   230.68158151
 C     13  10   9     1.540084413271   105.51534069   159.47011788
 C     11   9   1     1.529621194937   111.87158781   341.82483743
 C      1   2   3     1.411162995547    77.70719442   321.74855241
 C     10   9   1     1.535308763735   116.46727964   137.48453536
 C     15   9   1     1.520064472317   110.55003505   249.43848000
 C     14  12  11     1.550440260055   115.82668056   189.21601016
 C     19  10   9     1.525676898953   103.39442192   202.16880211
 C     12  11   9     1.550026451387   109.35257759   188.17160466
 C      9   1   2     1.531791761304    94.10594795    49.61568984
 C     10   9   1     1.535031921492   110.44291351   259.59886953
 C     12  11   9     1.526027850336   110.73786644    68.67781148
 C      2   1   3     1.447751705231    49.21814025   146.92817814
 C      3   1   2     1.406472893447    62.00394310   283.63410936
 C     23  12  11     1.516388142924   112.94819171   114.41376233
 C     21  14  12     1.536580619427   107.30501532   167.34588630
 C     21  14  12     1.526602109261   113.07158504   285.27527524
 C     27   2   1     1.552019651937   110.81975773   178.92006886
 C     27   2   1     1.530860215696   109.55650607    57.73778522
 C     32  27   2     1.519993749987   112.97252958   178.86980028
 C      2   1   3     1.399393440030   135.07839716   236.24403736
 C      5   2   1     1.400651634062    52.50190129   162.04334822
 C     34  32  27     1.485440338755   111.35011214   193.42827036
 C      6   5   2     1.401734282951    58.72902843    28.56777027
 C      4   2  35     1.423726097253   156.23444289    12.37530862
 C      7   6   5     1.402629316676    59.19173654   337.48998187
 C     37  34  32     1.339669362194   124.57365037   228.96557769
 C      8   4   2     1.400192486767    53.06292828   207.70398368
 C     41  37  34     1.485402639017   123.74438691     0.65355422
 C     41  37  34     1.488792127867   121.08395995   180.92726914
 H     11   9   1     1.127869230009   105.33552214    96.59334351
 H     13  10   9     1.125151100964   108.58465365    45.04828510
 H     14  12  11     1.127593455107   105.57904160   304.06154947
 H     15   9   1     1.113364720116   109.85118978    12.38167769
 H     15   9   1     1.108329373427   109.60638466   127.71674155
 H     16  13  10     1.121751309337   110.26629873   100.65316995
 H     17  11   9     1.113960950842   109.65023704   291.75034239
 H     17  11   9     1.114669906295   108.48141001   177.14690792
 H     18   1   2     1.124144118874   108.09119468   232.33663608
 H     19  10   9     1.104889587244   112.62484043    80.40132541
 H     19  10   9     1.111569161141   110.50363547   321.79550669
 H     20  15   9     1.111003600354   110.97555363   184.15012699
 H     20  15   9     1.117537918820   109.08541057   301.99027024
 H     22  19  10     1.109798179851   112.25558092   154.42646530
 H     22  19  10     1.108748844419   110.46976599   271.43792230
 H     23  12  11     1.111214200773   110.19409654   237.16283276
 H     23  12  11     1.113860404180   110.34045067   351.52886204
 H     24   9   1     1.101138501734   111.75139906    11.49065542
 H     24   9   1     1.104040760117   111.32890648   132.98792396
 H     24   9   1     1.103482215534   110.42817277   252.34546161
 H     25  10   9     1.102158337082   110.30637444   305.72225758
 H     25  10   9     1.098040982842   111.96451938   185.27977073
 H     25  10   9     1.104392140501   111.59014380    64.93954701
 H     26  12  11     1.101516227752   112.20491960   166.01144307
 H     26  12  11     1.101314668930   110.55881250    44.45562917
 H     26  12  11     1.106403633400   110.81420971   284.91358369
 H     28   3   1     1.116764075353    99.97155719   206.33902365
 H     29  23  12     1.107812709803   109.85253371   178.94882397
 H     29  23  12     1.110568773197   109.76681845   295.43673642
 H     30  21  14     1.103784852224   110.39368700    54.26559285
 H     30  21  14     1.098490327677   111.89710451   294.97073568
 H     30  21  14     1.097340876847   111.64063760   174.24359773
 H     31  21  14     1.101947820906   112.21010467    59.99481134
 H     31  21  14     1.099166047511   111.06495079   300.11539704
 H     31  21  14     1.098221744458   111.29061047   180.57569668
 H      1   2   3     0.948081220149   164.48448820    68.84315645
 H     32  27   2     1.114643440747   108.14592258    56.38372007
 H     32  27   2     1.113542096196   109.27014724   301.74094392
 H     33  27   2     1.098283205735   111.03046406   194.39513185
 H     33  27   2     1.099071426250   111.56200025   314.68313801
 H     33  27   2     1.098952683240   111.61781239    74.66850582
 H      3   1   2     0.950636628791    51.86795425    72.20239747
 H     34  32  27     1.115873200682   109.38384029   314.21378315
 H     34  32  27     1.114426309811   110.42206849    69.93363484
 H     35   2   1     1.124944887539   114.58454652   298.06390333
 H     36   5   2     1.114899547044   101.74632431   272.39218049
 H     37  34  32     1.098536298900   115.60082140    49.56242802
 H     38   6   5     1.116618556178   101.37077091    93.47681016
 H     39   4   2     1.118894990605   108.99923657   289.06080413
 H     40   7   6     1.115312960563   101.86179516   265.52895605
 H      5   2   1     0.950631369144   103.36419021   264.47978386
 H     42   8   4     1.104515730988   103.24873100   206.95124833
 H     42   8   4     1.107839338532   111.08698128    91.29157804
 H      6   5   2     0.950017894568    95.47373308   281.23894250
 H     43  41  37     1.097980418769   110.87580909   126.40293693
 H     43  41  37     1.102137015076   112.05451991     5.89816400
 H     43  41  37     1.098618223042   110.63462374   245.72067061
 H     44  41  37     1.097508542108   112.69920792     0.85780504
 H     44  41  37     1.098559966502   110.57213341   240.33535332
 H     44  41  37     1.098603204073   110.57461718   121.32235156
 H      7   6   5     0.950004210517    89.99234072    88.30478319
 H      8   4   2     0.949468272245    61.53633707   354.12738204

---------------------------
INTERNAL COORDINATES (A.U.)
---------------------------
 O      0   0   0     0.000000000000     0.00000000     0.00000000
 O      1   0   0     8.132910152407     0.00000000     0.00000000
 O      1   2   0    15.534071245459   109.19634219     0.00000000
 O      2   1   3     3.922096886040   177.48164570   205.89561941
 O      2   1   3     5.732266111888    87.96121611   263.93826746
 O      5   2   1     5.436481972779   111.31124710   163.86565834
 O      6   5   2     5.416380370406   117.49715120    21.45075158
 O      4   2   5     5.532444928774   144.97009018   197.15131845
 C      1   2   3     8.138769430128    65.93660012   337.65506917
 C      9   1   2     2.950126996428    59.32329862   299.85927594
 C      9   1   2     2.952214937956    60.58233963   165.56267117
 C     11   9   1     2.947570568996   115.44389196   212.00463407
 C     10   9   1     2.948704341339   107.65474315    23.81325022
 C     12  11   9     2.929405276704   106.30439688   305.58997249
 C      9   1   2     2.907774601802   158.70986403   230.68158151
 C     13  10   9     2.910337764203   105.51534069   159.47011788
 C     11   9   1     2.890565147072   111.87158781   341.82483743
 C      1   2   3     2.666711591907    77.70719442   321.74855241
 C     10   9   1     2.901313094467   116.46727964   137.48453536
 C     15   9   1     2.872505558582   110.55003505   249.43848000
 C     14  12  11     2.929907478510   115.82668056   189.21601016
 C     19  10   9     2.883111507872   103.39442192   202.16880211
 C     12  11   9     2.929125493456   109.35257759   188.17160466
 C      9   1   2     2.894666923062    94.10594795    49.61568984
 C     10   9   1     2.900789938447   110.44291351   259.59886953
 C     12  11   9     2.883774709871   110.73786644    68.67781148
 C      2   1   3     2.735854232805    49.21814025   146.92817814
 C      3   1   2     2.657848583398    62.00394310   283.63410936
 C     23  12  11     2.865558302851   112.94819171   114.41376233
 C     21  14  12     2.903716553409   107.30501532   167.34588630
 C     21  14  12     2.884859901970   113.07158504   285.27527524
 C     27   2   1     2.932892096626   110.81975773   178.92006886
 C     27   2   1     2.892906556981   109.55650607    57.73778522
 C     32  27   2     2.872371912748   112.97252958   178.86980028
 C      2   1   3     2.644470355263   135.07839716   236.24403736
 C      5   2   1     2.646847997406    52.50190129   162.04334822
 C     34  32  27     2.807075428526   111.35011214   193.42827036
 C      6   5   2     2.648893907306    58.72902843    28.56777027
 C      4   2  35     2.690452413525   156.23444289    12.37530862
 C      7   6   5     2.650585275927    59.19173654   337.48998187
 C     37  34  32     2.531608204551   124.57365037   228.96557769
 C      8   4   2     2.645980334765    53.06292828   207.70398368
 C     41  37  34     2.807004186347   123.74438691     0.65355422
 C     41  37  34     2.813409392007   121.08395995   180.92726914
 H     11   9   1     2.131363959593   105.33552214    96.59334351
 H     13  10   9     2.126227440102   108.58465365    45.04828510
 H     14  12  11     2.130842820554   105.57904160   304.06154947
 H     15   9   1     2.103954408190   109.85118978    12.38167769
 H     15   9   1     2.094438981957   109.60638466   127.71674155
 H     16  13  10     2.119802765015   110.26629873   100.65316995
 H     17  11   9     2.105081120973   109.65023704   291.75034239
 H     17  11   9     2.106420852621   108.48141001   177.14690792
 H     18   1   2     2.124324519731   108.09119468   232.33663608
 H     19  10   9     2.087938728112   112.62484043    80.40132541
 H     19  10   9     2.100561293469   110.50363547   321.79550669
 H     20  15   9     2.099492538470   110.97555363   184.15012699
 H     20  15   9     2.111840610842   109.08541057   301.99027024
 H     22  19  10     2.097214623842   112.25558092   154.42646530
 H     22  19  10     2.095231667253   110.46976599   271.43792230
 H     23  12  11     2.099890515586   110.19409654   237.16283276
 H     23  12  11     2.104891115319   110.34045067   351.52886204
 H     24   9   1     2.080850203793   111.75139906    11.49065542
 H     24   9   1     2.086334677308   111.32890648   132.98792396
 H     24   9   1     2.085279181012   110.42817277   252.34546161
 H     25  10   9     2.082777413304   110.30637444   305.72225758
 H     25  10   9     2.074996741393   111.96451938   185.27977073
 H     25  10   9     2.086998690002   111.59014380    64.93954701
 H     26  12  11     2.081564002520   112.20491960   166.01144307
 H     26  12  11     2.081183111548   110.55881250    44.45562917
 H     26  12  11     2.090799860701   110.81420971   284.91358369
 H     28   3   1     2.110378258620    99.97155719   206.33902365
 H     29  23  12     2.093462629204   109.85253371   178.94882397
 H     29  23  12     2.098670834227   109.76681845   295.43673642
 H     30  21  14     2.085851081475   110.39368700    54.26559285
 H     30  21  14     2.075845880071   111.89710451   294.97073568
 H     30  21  14     2.073673732798   111.64063760   174.24359773
 H     31  21  14     2.082379595384   112.21010467    59.99481134
 H     31  21  14     2.077122805500   111.06495079   300.11539704
 H     31  21  14     2.075338331343   111.29061047   180.57569668
 H      1   2   3     1.791613858796   164.48448820    68.84315645
 H     32  27   2     2.106370839983   108.14592258    56.38372007
 H     32  27   2     2.104289600403   109.27014724   301.74094392
 H     33  27   2     2.075454476325   111.03046406   194.39513185
 H     33  27   2     2.076943997231   111.56200025   314.68313801
 H     33  27   2     2.076719605461   111.61781239    74.66850582
 H      3   1   2     1.796442881290    51.86795425    72.20239747
 H     34  32  27     2.108694749471   109.38384029   314.21378315
 H     34  32  27     2.105960521980   110.42206849    69.93363484
 H     35   2   1     2.125837753203   114.58454652   298.06390333
 H     36   5   2     2.106854810747   101.74632431   272.39218049
 H     37  34  32     2.075932753092   115.60082140    49.56242802
 H     38   6   5     2.110103267230   101.37077091    93.47681016
 H     39   4   2     2.114405104859   108.99923657   289.06080413
 H     40   7   6     2.107636049077   101.86179516   265.52895605
 H      5   2   1     1.796432941996   103.36419021   264.47978386
 H     42   8   4     2.087232242175   103.24873100   206.95124833
 H     42   8   4     2.093512950211   111.08698128    91.29157804
 H      6   5   2     1.795273643059    95.47373308   281.23894250
 H     43  41  37     2.074882291881   110.87580909   126.40293693
 H     43  41  37     2.082737120551   112.05451991     5.89816400
 H     43  41  37     2.076087567285   110.63462374   245.72067061
 H     44  41  37     2.073990574223   112.69920792     0.85780504
 H     44  41  37     2.075977478378   110.57213341   240.33535332
 H     44  41  37     2.076059185547   110.57461718   121.32235156
 H      7   6   5     1.795247783949    89.99234072    88.30478319
 H      8   4   2     1.794235007391    61.53633707   354.12738204

---------------------
BASIS SET INFORMATION
---------------------
There are 3 groups of distinct atoms

 Group   1 Type O   : 7s4p1d contracted to 3s2p1d pattern {511/31/1}
 Group   2 Type C   : 7s4p1d contracted to 3s2p1d pattern {511/31/1}
 Group   3 Type H   : 4s1p contracted to 2s1p pattern {31/1}

Atom   0O    basis set group =>   1
Atom   1O    basis set group =>   1
Atom   2O    basis set group =>   1
Atom   3O    basis set group =>   1
Atom   4O    basis set group =>   1
Atom   5O    basis set group =>   1
Atom   6O    basis set group =>   1
Atom   7O    basis set group =>   1
Atom   8C    basis set group =>   2
Atom   9C    basis set group =>   2
Atom  10C    basis set group =>   2
Atom  11C    basis set group =>   2
Atom  12C    basis set group =>   2
Atom  13C    basis set group =>   2
Atom  14C    basis set group =>   2
Atom  15C    basis set group =>   2
Atom  16C    basis set group =>   2
Atom  17C    basis set group =>   2
Atom  18C    basis set group =>   2
Atom  19C    basis set group =>   2
Atom  20C    basis set group =>   2
Atom  21C    basis set group =>   2
Atom  22C    basis set group =>   2
Atom  23C    basis set group =>   2
Atom  24C    basis set group =>   2
Atom  25C    basis set group =>   2
Atom  26C    basis set group =>   2
Atom  27C    basis set group =>   2
Atom  28C    basis set group =>   2
Atom  29C    basis set group =>   2
Atom  30C    basis set group =>   2
Atom  31C    basis set group =>   2
Atom  32C    basis set group =>   2
Atom  33C    basis set group =>   2
Atom  34C    basis set group =>   2
Atom  35C    basis set group =>   2
Atom  36C    basis set group =>   2
Atom  37C    basis set group =>   2
Atom  38C    basis set group =>   2
Atom  39C    basis set group =>   2
Atom  40C    basis set group =>   2
Atom  41C    basis set group =>   2
Atom  42C    basis set group =>   2
Atom  43C    basis set group =>   2
Atom  44H    basis set group =>   3
Atom  45H    basis set group =>   3
Atom  46H    basis set group =>   3
Atom  47H    basis set group =>   3
Atom  48H    basis set group =>   3
Atom  49H    basis set group =>   3
Atom  50H    basis set group =>   3
Atom  51H    basis set group =>   3
Atom  52H    basis set group =>   3
Atom  53H    basis set group =>   3
Atom  54H    basis set group =>   3
Atom  55H    basis set group =>   3
Atom  56H    basis set group =>   3
Atom  57H    basis set group =>   3
Atom  58H    basis set group =>   3
Atom  59H    basis set group =>   3
Atom  60H    basis set group =>   3
Atom  61H    basis set group =>   3
Atom  62H    basis set group =>   3
Atom  63H    basis set group =>   3
Atom  64H    basis set group =>   3
Atom  65H    basis set group =>   3
Atom  66H    basis set group =>   3
Atom  67H    basis set group =>   3
Atom  68H    basis set group =>   3
Atom  69H    basis set group =>   3
Atom  70H    basis set group =>   3
Atom  71H    basis set group =>   3
Atom  72H    basis set group =>   3
Atom  73H    basis set group =>   3
Atom  74H    basis set group =>   3
Atom  75H    basis set group =>   3
Atom  76H    basis set group =>   3
Atom  77H    basis set group =>   3
Atom  78H    basis set group =>   3
Atom  79H    basis set group =>   3
Atom  80H    basis set group =>   3
Atom  81H    basis set group =>   3
Atom  82H    basis set group =>   3
Atom  83H    basis set group =>   3
Atom  84H    basis set group =>   3
Atom  85H    basis set group =>   3
Atom  86H    basis set group =>   3
Atom  87H    basis set group =>   3
Atom  88H    basis set group =>   3
Atom  89H    basis set group =>   3
Atom  90H    basis set group =>   3
Atom  91H    basis set group =>   3
Atom  92H    basis set group =>   3
Atom  93H    basis set group =>   3
Atom  94H    basis set group =>   3
Atom  95H    basis set group =>   3
Atom  96H    basis set group =>   3
Atom  97H    basis set group =>   3
Atom  98H    basis set group =>   3
Atom  99H    basis set group =>   3
Atom 100H    basis set group =>   3
Atom 101H    basis set group =>   3
Atom 102H    basis set group =>   3
Atom 103H    basis set group =>   3
Atom 104H    basis set group =>   3
Atom 105H    basis set group =>   3
---------------------------------
AUXILIARY/J BASIS SET INFORMATION
---------------------------------
There are 3 groups of distinct atoms

 Group   1 Type O   : 12s5p4d2f1g contracted to 6s4p3d1f1g pattern {711111/2111/211/2/1}
 Group   2 Type C   : 12s5p4d2f1g contracted to 6s4p3d1f1g pattern {711111/2111/211/2/1}
 Group   3 Type H   : 5s2p1d contracted to 3s1p1d pattern {311/2/1}

Atom   0O    basis set group =>   1
Atom   1O    basis set group =>   1
Atom   2O    basis set group =>   1
Atom   3O    basis set group =>   1
Atom   4O    basis set group =>   1
Atom   5O    basis set group =>   1
Atom   6O    basis set group =>   1
Atom   7O    basis set group =>   1
Atom   8C    basis set group =>   2
Atom   9C    basis set group =>   2
Atom  10C    basis set group =>   2
Atom  11C    basis set group =>   2
Atom  12C    basis set group =>   2
Atom  13C    basis set group =>   2
Atom  14C    basis set group =>   2
Atom  15C    basis set group =>   2
Atom  16C    basis set group =>   2
Atom  17C    basis set group =>   2
Atom  18C    basis set group =>   2
Atom  19C    basis set group =>   2
Atom  20C    basis set group =>   2
Atom  21C    basis set group =>   2
Atom  22C    basis set group =>   2
Atom  23C    basis set group =>   2
Atom  24C    basis set group =>   2
Atom  25C    basis set group =>   2
Atom  26C    basis set group =>   2
Atom  27C    basis set group =>   2
Atom  28C    basis set group =>   2
Atom  29C    basis set group =>   2
Atom  30C    basis set group =>   2
Atom  31C    basis set group =>   2
Atom  32C    basis set group =>   2
Atom  33C    basis set group =>   2
Atom  34C    basis set group =>   2
Atom  35C    basis set group =>   2
Atom  36C    basis set group =>   2
Atom  37C    basis set group =>   2
Atom  38C    basis set group =>   2
Atom  39C    basis set group =>   2
Atom  40C    basis set group =>   2
Atom  41C    basis set group =>   2
Atom  42C    basis set group =>   2
Atom  43C    basis set group =>   2
Atom  44H    basis set group =>   3
Atom  45H    basis set group =>   3
Atom  46H    basis set group =>   3
Atom  47H    basis set group =>   3
Atom  48H    basis set group =>   3
Atom  49H    basis set group =>   3
Atom  50H    basis set group =>   3
Atom  51H    basis set group =>   3
Atom  52H    basis set group =>   3
Atom  53H    basis set group =>   3
Atom  54H    basis set group =>   3
Atom  55H    basis set group =>   3
Atom  56H    basis set group =>   3
Atom  57H    basis set group =>   3
Atom  58H    basis set group =>   3
Atom  59H    basis set group =>   3
Atom  60H    basis set group =>   3
Atom  61H    basis set group =>   3
Atom  62H    basis set group =>   3
Atom  63H    basis set group =>   3
Atom  64H    basis set group =>   3
Atom  65H    basis set group =>   3
Atom  66H    basis set group =>   3
Atom  67H    basis set group =>   3
Atom  68H    basis set group =>   3
Atom  69H    basis set group =>   3
Atom  70H    basis set group =>   3
Atom  71H    basis set group =>   3
Atom  72H    basis set group =>   3
Atom  73H    basis set group =>   3
Atom  74H    basis set group =>   3
Atom  75H    basis set group =>   3
Atom  76H    basis set group =>   3
Atom  77H    basis set group =>   3
Atom  78H    basis set group =>   3
Atom  79H    basis set group =>   3
Atom  80H    basis set group =>   3
Atom  81H    basis set group =>   3
Atom  82H    basis set group =>   3
Atom  83H    basis set group =>   3
Atom  84H    basis set group =>   3
Atom  85H    basis set group =>   3
Atom  86H    basis set group =>   3
Atom  87H    basis set group =>   3
Atom  88H    basis set group =>   3
Atom  89H    basis set group =>   3
Atom  90H    basis set group =>   3
Atom  91H    basis set group =>   3
Atom  92H    basis set group =>   3
Atom  93H    basis set group =>   3
Atom  94H    basis set group =>   3
Atom  95H    basis set group =>   3
Atom  96H    basis set group =>   3
Atom  97H    basis set group =>   3
Atom  98H    basis set group =>   3
Atom  99H    basis set group =>   3
Atom 100H    basis set group =>   3
Atom 101H    basis set group =>   3
Atom 102H    basis set group =>   3
Atom 103H    basis set group =>   3
Atom 104H    basis set group =>   3
Atom 105H    basis set group =>   3


           ************************************************************
           *        Program running with 3 parallel MPI-processes     *
           *              working on a common directory               *
           ************************************************************
------------------------------------------------------------------------------
                           ORCA GTO INTEGRAL CALCULATION
                           -- RI-GTO INTEGRALS CHOSEN --
------------------------------------------------------------------------------
------------------------------------------------------------------------------
                   ___                                                        
                  /   \      - P O W E R E D   B Y -                         
                 /     \                                                     
                 |  |  |   _    _      __       _____    __    __             
                 |  |  |  | |  | |    /  \     |  _  \  |  |  /  |          
                  \  \/   | |  | |   /    \    | | | |  |  | /  /          
                 / \  \   | |__| |  /  /\  \   | |_| |  |  |/  /          
                |  |  |   |  __  | /  /__\  \  |    /   |      \           
                |  |  |   | |  | | |   __   |  |    \   |  |\   \          
                \     /   | |  | | |  |  |  |  | |\  \  |  | \   \       
                 \___/    |_|  |_| |__|  |__|  |_| \__\ |__|  \__/        
                                                                              
                      - O R C A' S   B I G   F R I E N D -                    
                                      &                                       
                       - I N T E G R A L  F E E D E R -                       
                                                                              
 v1 FN, 2020, v2 2021                                                         
------------------------------------------------------------------------------


Reading SHARK input file k/k.SHARKINP.tmp ... ok
----------------------
SHARK INTEGRAL PACKAGE
----------------------

Number of atoms                             ...    106
Number of basis functions                   ...    926
Number of shells                            ...    450
Maximum angular momentum                    ...      2
Integral batch strategy                     ... SHARK/LIBINT Hybrid
RI-J (if used) integral strategy            ... SPLIT-RIJ (Revised 2003 algorithm where possible)
Printlevel                                  ...      1
Contraction scheme used                     ... SEGMENTED contraction
Coulomb Range Separation                    ... NOT USED
Exchange Range Separation                   ... NOT USED
Finite Nucleus Model                        ... NOT USED
Auxiliary Coulomb fitting basis             ... AVAILABLE
   # of basis functions in Aux-J            ...   2838
   # of shells in Aux-J                     ...    970
   Maximum angular momentum in Aux-J        ...      4
Auxiliary J/K fitting basis                 ... NOT available
Auxiliary Correlation fitting basis         ... NOT available
Auxiliary 'external' fitting basis          ... NOT available
Integral threshold                          ...     1.000000e-10
Primitive cut-off                           ...     1.000000e-11
Primitive pair pre-selection threshold      ...     1.000000e-11

Calculating pre-screening integrals         ... done (  0.3 sec) Dimension = 450
Organizing shell pair data                  ... done (  0.4 sec)
Shell pair information
Total number of shell pairs                 ...    101475
Shell pairs after pre-screening             ...     52092
Total number of primitive shell pairs       ...    352299
Primitive shell pairs kept                  ...    109602
          la=0 lb=0:  18316 shell pairs
          la=1 lb=0:  20016 shell pairs
          la=1 lb=1:   5465 shell pairs
          la=2 lb=0:   5229 shell pairs
          la=2 lb=1:   2723 shell pairs
          la=2 lb=2:    343 shell pairs

Calculating one electron integrals          ... done (  0.4 sec)
Calculating RI/J V-Matrix + Cholesky decomp.... done (  0.8 sec)
Calculating Nuclear repulsion               ... done (  0.0 sec) ENN=   6167.086117005791 Eh

SHARK setup successfully completed in   2.6 seconds

Maximum memory used throughout the entire GTOINT-calculation: 124.1 MB


           ************************************************************
           *        Program running with 3 parallel MPI-processes     *
           *              working on a common directory               *
           ************************************************************
-------------------------------------------------------------------------------
                                 ORCA SCF
-------------------------------------------------------------------------------

------------
SCF SETTINGS
------------
Hamiltonian:
 Density Functional     Method          .... DFT(GTOs)
 Exchange Functional    Exchange        .... B88
   X-Alpha parameter    XAlpha          ....  0.666667
   Becke's b parameter  XBeta           ....  0.004200
 Correlation Functional Correlation     .... LYP
 LDA part of GGA corr.  LDAOpt          .... VWN-5
 Gradients option       PostSCFGGA      .... off
 Hybrid DFT is turned on
   Fraction HF Exchange ScalHFX         ....  0.200000
   Scaling of DF-GGA-X  ScalDFX         ....  0.720000
   Scaling of DF-GGA-C  ScalDFC         ....  0.810000
   Scaling of DF-LDA-C  ScalLDAC        ....  1.000000
   Perturbative correction              ....  0.000000
   Density functional embedding theory  .... OFF
   NL short-range parameter             ....  4.800000
 RI-approximation to the Coulomb term is turned on
   Number of AuxJ basis functions       .... 2838
   RIJ-COSX (HFX calculated with COS-X)).... on


General Settings:
 Integral files         IntName         .... k/k
 Hartree-Fock type      HFTyp           .... RHF
 Total Charge           Charge          ....    0
 Multiplicity           Mult            ....    1
 Number of Electrons    NEL             ....  342
 Basis Dimension        Dim             ....  926
 Nuclear Repulsion      ENuc            ....   6167.0861170058 Eh

Convergence Acceleration:
 DIIS                   CNVDIIS         .... on
   Start iteration      DIISMaxIt       ....    12
   Startup error        DIISStart       ....  0.200000
   # of expansion vecs  DIISMaxEq       ....     5
   Bias factor          DIISBfac        ....   1.050
   Max. coefficient     DIISMaxC        ....  10.000
 Trust-Rad. Augm. Hess. CNVTRAH         .... auto
   Auto Start mean grad. ratio tolernc. ....  1.125000
   Auto Start start iteration           ....    20
   Auto Start num. interpolation iter.  ....    10
   Max. Number of Micro iterations      ....    16
   Max. Number of Macro iterations      .... Maxiter - #DIIS iter
   Number of Davidson start vectors     ....     2
   Converg. threshold I  (grad. norm)   ....   5.000e-05
   Converg. threshold II (energy diff.) ....   1.000e-06
   Grad. Scal. Fac. for Micro threshold ....   0.100
   Minimum threshold for Micro iter.    ....   0.010
   NR start threshold (gradient norm)   ....   0.001
   Initial trust radius                 ....   0.400
   Minimum AH scaling param. (alpha)    ....   1.000
   Maximum AH scaling param. (alpha)    .... 1000.000
   Orbital update algorithm             .... Taylor
   White noise on init. David. guess    .... on
   Maximum white noise                  ....   0.010
   Quad. conv. algorithm                .... NR
 SOSCF                  CNVSOSCF        .... on
   Start iteration      SOSCFMaxIt      ....   150
   Startup grad/error   SOSCFStart      ....  0.003300
 Level Shifting         CNVShift        .... on
   Level shift para.    LevelShift      ....    0.2500
   Turn off err/grad.   ShiftErr        ....    0.0010
 Zerner damping         CNVZerner       .... off
 Static damping         CNVDamp         .... on
   Fraction old density DampFac         ....    0.7000
   Max. Damping (<1)    DampMax         ....    0.9800
   Min. Damping (>=0)   DampMin         ....    0.0000
   Turn off err/grad.   DampErr         ....    0.1000
 Fernandez-Rico         CNVRico         .... off

SCF Procedure:
 Maximum # iterations   MaxIter         ....   125
 SCF integral mode      SCFMode         .... Direct
   Integral package                     .... SHARK and LIBINT hybrid scheme
 Reset frequency        DirectResetFreq ....    20
 Integral Threshold     Thresh          ....  1.000e-10 Eh
 Primitive CutOff       TCut            ....  1.000e-11 Eh

Convergence Tolerance:
 Convergence Check Mode ConvCheckMode   .... Total+1el-Energy
 Convergence forced     ConvForced      .... 0
 Energy Change          TolE            ....  1.000e-06 Eh
 1-El. energy change                    ....  1.000e-03 Eh
 Orbital Gradient       TolG            ....  5.000e-05
 Orbital Rotation angle TolX            ....  5.000e-05
 DIIS Error             TolErr          ....  1.000e-06


Diagonalization of the overlap matrix:
Smallest eigenvalue                        ... 3.332e-04
Time for diagonalization                   ...    0.278 sec
Threshold for overlap eigenvalues          ... 1.000e-08
Number of eigenvalues below threshold      ... 0
Time for construction of square roots      ...    0.119 sec
Total time needed                          ...    0.401 sec

Time for model grid setup =    4.346 sec

------------------------------
INITIAL GUESS: MODEL POTENTIAL
------------------------------
Loading Hartree-Fock densities                     ... done
Calculating cut-offs                               ... done
Initializing the effective Hamiltonian             ... done
Setting up the integral package (SHARK)            ... done
Starting the Coulomb interaction                   ... done (   5.0 sec)
Reading the grid                                   ... done
Mapping shells                                     ... done
Starting the XC term evaluation                    ... done (   1.5 sec)
  promolecular density results
     # of electrons  =    341.960758036
     EX              =   -269.423803434
     EC              =    -11.550280281
     EX+EC           =   -280.974083715
Transforming the Hamiltonian                       ... done (   0.1 sec)
Diagonalizing the Hamiltonian                      ... done (   0.3 sec)
Back transforming the eigenvectors                 ... done (   0.0 sec)
Now organizing SCF variables                       ... done
                      ------------------
                      INITIAL GUESS DONE (  11.3 sec)
                      ------------------
-------------------
DFT GRID GENERATION
-------------------

General Integration Accuracy     IntAcc      ... 4.388
Radial Grid Type                 RadialGrid  ... OptM3 with GC (2021)
Angular Grid (max. ang.)         AngularGrid ... 4 (Lebedev-302)
Angular grid pruning method      GridPruning ... 4 (adaptive)
Weight generation scheme         WeightScheme... Becke
Basis function cutoff            BFCut       ... 1.0000e-10
Integration weight cutoff        WCut        ... 1.0000e-14
Angular grids for H and He will be reduced by one unit
Partially contracted basis set               ... off
Rotationally invariant grid construction     ... off

Total number of grid points                  ...   451747
Total number of batches                      ...     7114
Average number of points per batch           ...       63
Average number of grid points per atom       ...     4262
Time for grid setup =   13.490 sec

--------------------
COSX GRID GENERATION
--------------------

GRIDX 1
-------
General Integration Accuracy     IntAcc      ... 3.816
Radial Grid Type                 RadialGrid  ... OptM3 with GC (2021)
Angular Grid (max. ang.)         AngularGrid ... 1 (Lebedev-50)
Angular grid pruning method      GridPruning ... 4 (adaptive)
Weight generation scheme         WeightScheme... Becke
Basis function cutoff            BFCut       ... 1.0000e-10
Integration weight cutoff        WCut        ... 1.0000e-14
Angular grids for H and He will be reduced by one unit
Partially contracted basis set               ... on
Rotationally invariant grid construction     ... off

Total number of grid points                  ...    57227
Total number of batches                      ...      950
Average number of points per batch           ...       60
Average number of grid points per atom       ...      540
UseSFitting                                  ... on

GRIDX 2
-------
General Integration Accuracy     IntAcc      ... 4.020
Radial Grid Type                 RadialGrid  ... OptM3 with GC (2021)
Angular Grid (max. ang.)         AngularGrid ... 2 (Lebedev-110)
Angular grid pruning method      GridPruning ... 4 (adaptive)
Weight generation scheme         WeightScheme... Becke
Basis function cutoff            BFCut       ... 1.0000e-10
Integration weight cutoff        WCut        ... 1.0000e-14
Angular grids for H and He will be reduced by one unit
Partially contracted basis set               ... on
Rotationally invariant grid construction     ... off

Total number of grid points                  ...   118241
Total number of batches                      ...     1898
Average number of points per batch           ...       62
Average number of grid points per atom       ...     1115
UseSFitting                                  ... on

GRIDX 3
-------
General Integration Accuracy     IntAcc      ... 4.338
Radial Grid Type                 RadialGrid  ... OptM3 with GC (2021)
Angular Grid (max. ang.)         AngularGrid ... 3 (Lebedev-194)
Angular grid pruning method      GridPruning ... 4 (adaptive)
Weight generation scheme         WeightScheme... Becke
Basis function cutoff            BFCut       ... 1.0000e-10
Integration weight cutoff        WCut        ... 1.0000e-14
Angular grids for H and He will be reduced by one unit
Partially contracted basis set               ... on
Rotationally invariant grid construction     ... off

Total number of grid points                  ...   255362
Total number of batches                      ...     4046
Average number of points per batch           ...       63
Average number of grid points per atom       ...     2409
UseSFitting                                  ... on

Time for X-Grid setup             =   16.599 sec

--------------
SCF ITERATIONS
--------------
ITER       Energy         Delta-E        Max-DP      RMS-DP      [F,P]     Damp
               ***  Starting incremental Fock matrix formation  ***
  0  -2006.8111644900   0.000000000000 0.10754050  0.00124575  0.2457816 0.7000
  1  -2007.4131456252  -0.601981135253 0.07603377  0.00085875  0.1042958 0.7000
                               ***Turning on DIIS***
  2  -2007.6486539292  -0.235508303984 0.09034161  0.00137058  0.0351578 0.0000
  3  -2008.0047187329  -0.356064803698 0.05906735  0.00061940  0.0555665 0.0000
  4  -2008.0939529282  -0.089234195255 0.01098178  0.00016515  0.0103964 0.0000
  5  -2008.0978001799  -0.003847251765 0.00732812  0.00006566  0.0064589 0.0000
                      *** Initiating the SOSCF procedure ***
                           *** Shutting down DIIS ***
                      *** Re-Reading the Fockian *** 
                      *** Removing any level shift *** 
ITER      Energy       Delta-E        Grad      Rot      Max-DP    RMS-DP
  6  -2008.09825569  -0.0004555084  0.000190  0.000190  0.001750  0.000019
               *** Restarting incremental Fock matrix formation ***
  7  -2008.09832453  -0.0000688375  0.000110  0.000383  0.001012  0.000014
  8  -2008.09832402   0.0000005052  0.000097  0.000098  0.000528  0.000006
  9  -2008.09832891  -0.0000048918  0.000020  0.000049  0.000123  0.000002
 10  -2008.09832887   0.0000000384  0.000030  0.000025  0.000073  0.000001
                  ***Gradient check signals convergence***
              ***Rediagonalizing the Fockian in SOSCF/NRSCF***

               *****************************************************
               *                     SUCCESS                       *
               *           SCF CONVERGED AFTER  11 CYCLES          *
               *****************************************************

Old exchange energy                            =    -54.918705531 Eh
New exchange energy                            =    -54.918839282 Eh
Exchange energy change after final integration =     -0.000133752 Eh
Total energy after final integration           =  -2008.098462901 Eh
Final COS-X integration done in                =   180.324 sec

----------------
TOTAL SCF ENERGY
----------------

Total Energy       :        -2008.09846290 Eh          -54643.13718 eV

Components:
Nuclear Repulsion  :         6167.08611701 Eh          167814.94479 eV
Electronic Energy  :        -8175.18457991 Eh         -222458.08197 eV
One Electron Energy:       -15017.22544058 Eh         -408639.47907 eV
Two Electron Energy:         6842.04086067 Eh          186181.39710 eV
Max COSX asymmetry :            0.00001022 Eh               0.00028 eV

Virial components:
Potential Energy   :        -3996.57722620 Eh         -108752.39519 eV
Kinetic Energy     :         1988.47876330 Eh           54109.25801 eV
Virial Ratio       :            2.00986669


DFT components:
N(Alpha)           :      171.000360758173 electrons
N(Beta)            :      171.000360758173 electrons
N(Total)           :      342.000721516347 electrons
E(X)               :     -217.855075681031 Eh       
E(C)               :      -13.550462191149 Eh       
E(XC)              :     -231.405537872181 Eh       
DFET-embed. en.    :        0.000000000000 Eh       

---------------
SCF CONVERGENCE
---------------

  Last Energy change         ...   -2.7551e-07  Tolerance :   1.0000e-06
  Last MAX-Density change    ...    6.2172e-15  Tolerance :   1.0000e-05
  Last RMS-Density change    ...    3.1182e-17  Tolerance :   1.0000e-06
  Last Orbital Gradient      ...    5.9472e-06  Tolerance :   5.0000e-05
  Last Orbital Rotation      ...    2.2574e-05  Tolerance :   5.0000e-05

             **** THE GBW FILE WAS UPDATED (k/k.gbw) ****
             **** DENSITY k/k.scfp WAS UPDATED ****
             **** ENERGY FILE WAS UPDATED (k/k.en.tmp) ****
             **** THE GBW FILE WAS UPDATED (k/k.gbw) ****
             **** DENSITY k/k.scfp WAS UPDATED ****
----------------
ORBITAL ENERGIES
----------------

  NO   OCC          E(Eh)            E(eV) 
   0   2.0000     -19.144626      -520.9518 
   1   2.0000     -19.138494      -520.7849 
   2   2.0000     -19.136949      -520.7428 
   3   2.0000     -19.132176      -520.6130 
   4   2.0000     -19.130957      -520.5798 
   5   2.0000     -19.124178      -520.3953 
   6   2.0000     -19.119407      -520.2655 
   7   2.0000     -19.118363      -520.2371 
   8   2.0000     -10.289840      -280.0008 
   9   2.0000     -10.244822      -278.7758 
  10   2.0000     -10.242848      -278.7221 
  11   2.0000     -10.242596      -278.7152 
  12   2.0000     -10.237593      -278.5791 
  13   2.0000     -10.234671      -278.4995 
  14   2.0000     -10.227738      -278.3109 
  15   2.0000     -10.225045      -278.2376 
  16   2.0000     -10.221780      -278.1488 
  17   2.0000     -10.190641      -277.3014 
  18   2.0000     -10.186623      -277.1921 
  19   2.0000     -10.186346      -277.1846 
  20   2.0000     -10.183472      -277.1064 
  21   2.0000     -10.183464      -277.1061 
  22   2.0000     -10.180247      -277.0186 
  23   2.0000     -10.180080      -277.0141 
  24   2.0000     -10.179913      -277.0095 
  25   2.0000     -10.179055      -276.9862 
  26   2.0000     -10.179041      -276.9858 
  27   2.0000     -10.178678      -276.9759 
  28   2.0000     -10.178590      -276.9735 
  29   2.0000     -10.178229      -276.9637 
  30   2.0000     -10.176128      -276.9065 
  31   2.0000     -10.176112      -276.9061 
  32   2.0000     -10.173831      -276.8440 
  33   2.0000     -10.173661      -276.8394 
  34   2.0000     -10.172888      -276.8183 
  35   2.0000     -10.172258      -276.8012 
  36   2.0000     -10.170654      -276.7576 
  37   2.0000     -10.170110      -276.7428 
  38   2.0000     -10.169623      -276.7295 
  39   2.0000     -10.169152      -276.7167 
  40   2.0000     -10.168171      -276.6900 
  41   2.0000     -10.167069      -276.6600 
  42   2.0000     -10.166387      -276.6414 
  43   2.0000     -10.159605      -276.4569 
  44   2.0000      -1.072506       -29.1844 
  45   2.0000      -1.036803       -28.2128 
  46   2.0000      -1.026413       -27.9301 
  47   2.0000      -1.011209       -27.5164 
  48   2.0000      -1.008692       -27.4479 
  49   2.0000      -1.008313       -27.4376 
  50   2.0000      -1.008283       -27.4368 
  51   2.0000      -0.991177       -26.9713 
  52   2.0000      -0.868411       -23.6307 
  53   2.0000      -0.843868       -22.9628 
  54   2.0000      -0.817880       -22.2556 
  55   2.0000      -0.805838       -21.9280 
  56   2.0000      -0.791107       -21.5271 
  57   2.0000      -0.783758       -21.3271 
  58   2.0000      -0.770036       -20.9538 
  59   2.0000      -0.762177       -20.7399 
  60   2.0000      -0.756442       -20.5838 
  61   2.0000      -0.747132       -20.3305 
  62   2.0000      -0.730260       -19.8714 
  63   2.0000      -0.720283       -19.5999 
  64   2.0000      -0.710959       -19.3462 
  65   2.0000      -0.700951       -19.0739 
  66   2.0000      -0.684174       -18.6173 
  67   2.0000      -0.674886       -18.3646 
  68   2.0000      -0.673625       -18.3303 
  69   2.0000      -0.667278       -18.1576 
  70   2.0000      -0.666554       -18.1379 
  71   2.0000      -0.663459       -18.0536 
  72   2.0000      -0.660562       -17.9748 
  73   2.0000      -0.645668       -17.5695 
  74   2.0000      -0.640086       -17.4176 
  75   2.0000      -0.627199       -17.0670 
  76   2.0000      -0.610158       -16.6032 
  77   2.0000      -0.608577       -16.5602 
  78   2.0000      -0.603900       -16.4329 
  79   2.0000      -0.597174       -16.2499 
  80   2.0000      -0.590092       -16.0572 
  81   2.0000      -0.571923       -15.5628 
  82   2.0000      -0.558768       -15.2049 
  83   2.0000      -0.546639       -14.8748 
  84   2.0000      -0.541982       -14.7481 
  85   2.0000      -0.538141       -14.6436 
  86   2.0000      -0.529255       -14.4018 
  87   2.0000      -0.522646       -14.2219 
  88   2.0000      -0.514738       -14.0067 
  89   2.0000      -0.513485       -13.9726 
  90   2.0000      -0.507017       -13.7966 
  91   2.0000      -0.498048       -13.5526 
  92   2.0000      -0.495842       -13.4925 
  93   2.0000      -0.494345       -13.4518 
  94   2.0000      -0.487490       -13.2653 
  95   2.0000      -0.481184       -13.0937 
  96   2.0000      -0.480707       -13.0807 
  97   2.0000      -0.474072       -12.9002 
  98   2.0000      -0.471429       -12.8282 
  99   2.0000      -0.466887       -12.7046 
 100   2.0000      -0.465392       -12.6639 
 101   2.0000      -0.460445       -12.5293 
 102   2.0000      -0.455401       -12.3921 
 103   2.0000      -0.451732       -12.2922 
 104   2.0000      -0.444455       -12.0942 
 105   2.0000      -0.444172       -12.0865 
 106   2.0000      -0.435528       -11.8513 
 107   2.0000      -0.434112       -11.8128 
 108   2.0000      -0.433839       -11.8053 
 109   2.0000      -0.430952       -11.7268 
 110   2.0000      -0.426792       -11.6136 
 111   2.0000      -0.425886       -11.5889 
 112   2.0000      -0.423362       -11.5203 
 113   2.0000      -0.418738       -11.3944 
 114   2.0000      -0.413884       -11.2624 
 115   2.0000      -0.410963       -11.1829 
 116   2.0000      -0.407765       -11.0958 
 117   2.0000      -0.406408       -11.0589 
 118   2.0000      -0.403934       -10.9916 
 119   2.0000      -0.400947       -10.9103 
 120   2.0000      -0.396658       -10.7936 
 121   2.0000      -0.394936       -10.7468 
 122   2.0000      -0.391086       -10.6420 
 123   2.0000      -0.385058       -10.4780 
 124   2.0000      -0.384195       -10.4545 
 125   2.0000      -0.381387       -10.3781 
 126   2.0000      -0.378884       -10.3100 
 127   2.0000      -0.376436       -10.2433 
 128   2.0000      -0.373997       -10.1770 
 129   2.0000      -0.372407       -10.1337 
 130   2.0000      -0.369439       -10.0530 
 131   2.0000      -0.368597       -10.0300 
 132   2.0000      -0.366439        -9.9713 
 133   2.0000      -0.362677        -9.8689 
 134   2.0000      -0.360352        -9.8057 
 135   2.0000      -0.358561        -9.7569 
 136   2.0000      -0.358000        -9.7417 
 137   2.0000      -0.356190        -9.6924 
 138   2.0000      -0.353607        -9.6221 
 139   2.0000      -0.349463        -9.5094 
 140   2.0000      -0.346013        -9.4155 
 141   2.0000      -0.341564        -9.2944 
 142   2.0000      -0.340813        -9.2740 
 143   2.0000      -0.338543        -9.2122 
 144   2.0000      -0.337444        -9.1823 
 145   2.0000      -0.336377        -9.1533 
 146   2.0000      -0.332072        -9.0361 
 147   2.0000      -0.331400        -9.0179 
 148   2.0000      -0.328822        -8.9477 
 149   2.0000      -0.327243        -8.9047 
 150   2.0000      -0.321826        -8.7573 
 151   2.0000      -0.319445        -8.6925 
 152   2.0000      -0.312919        -8.5150 
 153   2.0000      -0.310808        -8.4575 
 154   2.0000      -0.309230        -8.4146 
 155   2.0000      -0.305569        -8.3150 
 156   2.0000      -0.299956        -8.1622 
 157   2.0000      -0.298472        -8.1218 
 158   2.0000      -0.297283        -8.0895 
 159   2.0000      -0.295849        -8.0505 
 160   2.0000      -0.289702        -7.8832 
 161   2.0000      -0.287572        -7.8252 
 162   2.0000      -0.279352        -7.6016 
 163   2.0000      -0.274522        -7.4701 
 164   2.0000      -0.270293        -7.3550 
 165   2.0000      -0.266730        -7.2581 
 166   2.0000      -0.257468        -7.0061 
 167   2.0000      -0.253019        -6.8850 
 168   2.0000      -0.251693        -6.8489 
 169   2.0000      -0.248445        -6.7605 
 170   2.0000      -0.230287        -6.2664 
 171   0.0000       0.023658         0.6438 
 172   0.0000       0.030305         0.8246 
 173   0.0000       0.033875         0.9218 
 174   0.0000       0.042479         1.1559 
 175   0.0000       0.046806         1.2737 
 176   0.0000       0.047736         1.2990 
 177   0.0000       0.052601         1.4314 
 178   0.0000       0.054164         1.4739 
 179   0.0000       0.055457         1.5091 
 180   0.0000       0.060218         1.6386 
 181   0.0000       0.063687         1.7330 
 182   0.0000       0.072313         1.9678 
 183   0.0000       0.074828         2.0362 
 184   0.0000       0.075759         2.0615 
 185   0.0000       0.081682         2.2227 
 186   0.0000       0.082689         2.2501 
 187   0.0000       0.091521         2.4904 
 188   0.0000       0.092855         2.5267 
 189   0.0000       0.094603         2.5743 
 190   0.0000       0.099651         2.7116 
 191   0.0000       0.101733         2.7683 
 192   0.0000       0.103169         2.8074 
 193   0.0000       0.104821         2.8523 
 194   0.0000       0.110028         2.9940 
 195   0.0000       0.112181         3.0526 
 196   0.0000       0.113597         3.0911 
 197   0.0000       0.115408         3.1404 
 198   0.0000       0.117034         3.1847 
 199   0.0000       0.121518         3.3067 
 200   0.0000       0.122418         3.3312 
 201   0.0000       0.123834         3.3697 
 202   0.0000       0.130408         3.5486 
 203   0.0000       0.131534         3.5792 
 204   0.0000       0.134510         3.6602 
 205   0.0000       0.135206         3.6791 
 206   0.0000       0.136025         3.7014 
 207   0.0000       0.136388         3.7113 
 208   0.0000       0.139317         3.7910 
 209   0.0000       0.142265         3.8712 
 210   0.0000       0.147316         4.0087 
 211   0.0000       0.147957         4.0261 
 212   0.0000       0.152922         4.1612 
 213   0.0000       0.154500         4.2042 
 214   0.0000       0.157854         4.2954 
 215   0.0000       0.161238         4.3875 
 216   0.0000       0.162427         4.4199 
 217   0.0000       0.162730         4.4281 
 218   0.0000       0.167128         4.5478 
 219   0.0000       0.167805         4.5662 
 220   0.0000       0.173893         4.7319 
 221   0.0000       0.174873         4.7585 
 222   0.0000       0.179228         4.8770 
 223   0.0000       0.180132         4.9016 
 224   0.0000       0.186209         5.0670 
 225   0.0000       0.188966         5.1420 
 226   0.0000       0.190241         5.1767 
 227   0.0000       0.193866         5.2753 
 228   0.0000       0.194889         5.3032 
 229   0.0000       0.200862         5.4657 
 230   0.0000       0.201160         5.4738 
 231   0.0000       0.204070         5.5530 
 232   0.0000       0.205398         5.5892 
 233   0.0000       0.207895         5.6571 
 234   0.0000       0.209775         5.7083 
 235   0.0000       0.210952         5.7403 
 236   0.0000       0.213919         5.8210 
 237   0.0000       0.214475         5.8362 
 238   0.0000       0.220024         5.9872 
 239   0.0000       0.221879         6.0376 
 240   0.0000       0.223056         6.0697 
 241   0.0000       0.225563         6.1379 
 242   0.0000       0.228124         6.2076 
 243   0.0000       0.228964         6.2304 
 244   0.0000       0.231859         6.3092 
 245   0.0000       0.236383         6.4323 
 246   0.0000       0.238485         6.4895 
[...]
      px      :     0.022823
      py      :     0.018036
 74 H s       :     0.919329  s :     0.919329
      pz      :     0.014477  p :     0.064955
      px      :     0.012564
      py      :     0.037914
 75 H s       :     0.914316  s :     0.914316
      pz      :     0.012704  p :     0.065187
      px      :     0.036722
      py      :     0.015760
 76 H s       :     0.917321  s :     0.917321
      pz      :     0.035873  p :     0.069398
      px      :     0.018557
      py      :     0.014968
 77 H s       :     0.913519  s :     0.913519
      pz      :     0.025543  p :     0.065663
      px      :     0.018241
      py      :     0.021879
 78 H s       :     0.910105  s :     0.910105
      pz      :     0.012517  p :     0.065951
      px      :     0.038887
      py      :     0.014547
 79 H s       :     0.751039  s :     0.751039
      pz      :     0.060272  p :     0.189506
      px      :     0.067716
      py      :     0.061518
 80 H s       :     0.913192  s :     0.913192
      pz      :     0.040986  p :     0.067249
      px      :     0.013173
      py      :     0.013089
 81 H s       :     0.917216  s :     0.917216
      pz      :     0.016425  p :     0.066292
      px      :     0.029659
      py      :     0.020208
 82 H s       :     0.909776  s :     0.909776
      pz      :     0.014586  p :     0.067380
      px      :     0.013809
      py      :     0.038985
 83 H s       :     0.907209  s :     0.907209
      pz      :     0.018139  p :     0.067636
      px      :     0.028858
      py      :     0.020639
 84 H s       :     0.931955  s :     0.931955
      pz      :     0.018308  p :     0.065180
      px      :     0.031886
      py      :     0.014986
 85 H s       :     0.760100  s :     0.760100
      pz      :     0.058177  p :     0.190885
      px      :     0.073526
      py      :     0.059183
 86 H s       :     0.904118  s :     0.904118
      pz      :     0.013298  p :     0.066773
      px      :     0.035461
      py      :     0.018014
 87 H s       :     0.909076  s :     0.909076
      pz      :     0.039028  p :     0.066506
      px      :     0.013935
      py      :     0.013542
 88 H s       :     0.938799  s :     0.938799
      pz      :     0.013455  p :     0.068082
      px      :     0.032276
      py      :     0.022351
 89 H s       :     0.912140  s :     0.912140
      pz      :     0.009903  p :     0.062047
      px      :     0.037038
      py      :     0.015106
 90 H s       :     0.915818  s :     0.915818
      pz      :     0.039818  p :     0.066866
      px      :     0.012174
      py      :     0.014874
 91 H s       :     0.928341  s :     0.928341
      pz      :     0.015523  p :     0.061272
      px      :     0.032847
      py      :     0.012902
 92 H s       :     0.933223  s :     0.933223
      pz      :     0.014586  p :     0.064798
      px      :     0.035228
      py      :     0.014984
 93 H s       :     0.917770  s :     0.917770
      pz      :     0.016157  p :     0.062037
      px      :     0.029509
      py      :     0.016371
 94 H s       :     0.750556  s :     0.750556
      pz      :     0.044645  p :     0.188037
      px      :     0.083607
      py      :     0.059784
 95 H s       :     0.916454  s :     0.916454
      pz      :     0.011517  p :     0.062723
      px      :     0.022805
      py      :     0.028401
 96 H s       :     0.927678  s :     0.927678
      pz      :     0.014390  p :     0.063958
      px      :     0.036521
      py      :     0.013046
 97 H s       :     0.746795  s :     0.746795
      pz      :     0.051481  p :     0.187038
      px      :     0.084487
      py      :     0.051070
 98 H s       :     0.907479  s :     0.907479
      pz      :     0.015874  p :     0.065015
      px      :     0.035325
      py      :     0.013816
 99 H s       :     0.908865  s :     0.908865
      pz      :     0.021507  p :     0.067425
      px      :     0.026254
      py      :     0.019664
100 H s       :     0.903682  s :     0.903682
      pz      :     0.013167  p :     0.065200
      px      :     0.013227
      py      :     0.038806
101 H s       :     0.911520  s :     0.911520
      pz      :     0.037469  p :     0.063831
      px      :     0.012350
      py      :     0.014013
102 H s       :     0.908367  s :     0.908367
      pz      :     0.014118  p :     0.064746
      px      :     0.035538
      py      :     0.015090
103 H s       :     0.908448  s :     0.908448
      pz      :     0.012222  p :     0.064719
      px      :     0.012811
      py      :     0.039687
104 H s       :     0.748017  s :     0.748017
      pz      :     0.062410  p :     0.187791
      px      :     0.075555
      py      :     0.049827
105 H s       :     0.750657  s :     0.750657
      pz      :     0.050456  p :     0.188054
      px      :     0.067143
      py      :     0.070455


                      *****************************
                      * MAYER POPULATION ANALYSIS *
                      *****************************

  NA   - Mulliken gross atomic population
  ZA   - Total nuclear charge
  QA   - Mulliken gross atomic charge
  VA   - Mayer's total valence
  BVA  - Mayer's bonded valence
  FA   - Mayer's free valence

  ATOM       NA         ZA         QA         VA         BVA        FA
  0 O      8.2603     8.0000    -0.2603     2.1428     2.1428    -0.0000
  1 O      8.3592     8.0000    -0.3592     2.0480     2.0480     0.0000
  2 O      8.2840     8.0000    -0.2840     2.1486     2.1486     0.0000
  3 O      8.3642     8.0000    -0.3642     2.0668     2.0668    -0.0000
  4 O      8.2656     8.0000    -0.2656     2.1436     2.1436    -0.0000
  5 O      8.2687     8.0000    -0.2687     2.1341     2.1341    -0.0000
  6 O      8.2742     8.0000    -0.2742     2.1285     2.1285     0.0000
  7 O      8.3082     8.0000    -0.3082     2.1194     2.1194     0.0000
  8 C      6.2121     6.0000    -0.2121     4.1921     4.1921     0.0000
  9 C      6.3039     6.0000    -0.3039     4.1695     4.1695     0.0000
 10 C      6.0108     6.0000    -0.0108     3.9948     3.9948     0.0000
 11 C      6.2452     6.0000    -0.2452     4.2079     4.2079    -0.0000
 12 C      5.9909     6.0000     0.0091     3.9622     3.9622    -0.0000
 13 C      5.9668     6.0000     0.0332     4.1120     4.1120    -0.0000
 14 C      5.8640     6.0000     0.1360     4.0375     4.0375    -0.0000
 15 C      6.0003     6.0000    -0.0003     3.9656     3.9656    -0.0000
 16 C      5.9035     6.0000     0.0965     3.9592     3.9592    -0.0000
 17 C      5.7974     6.0000     0.2026     4.1498     4.1498    -0.0000
 18 C      5.8513     6.0000     0.1487     4.0182     4.0182     0.0000
 19 C      5.8808     6.0000     0.1192     4.0219     4.0219    -0.0000
 20 C      6.2652     6.0000    -0.2652     4.0732     4.0732    -0.0000
 21 C      5.9083     6.0000     0.0917     4.0841     4.0841    -0.0000
 22 C      5.9306     6.0000     0.0694     4.0006     4.0006     0.0000
 23 C      5.8763     6.0000     0.1237     3.9338     3.9338     0.0000
 24 C      5.8975     6.0000     0.1025     3.9022     3.9022    -0.0000
 25 C      5.8668     6.0000     0.1332     3.9238     3.9238    -0.0000
 26 C      6.0656     6.0000    -0.0656     4.2531     4.2531     0.0000
 27 C      5.8285     6.0000     0.1715     4.0262     4.0262    -0.0000
 28 C      5.8725     6.0000     0.1275     4.1588     4.1588    -0.0000
 29 C      5.9031     6.0000     0.0969     3.9340     3.9340    -0.0000
 30 C      5.8938     6.0000     0.1062     3.9658     3.9658     0.0000
 31 C      5.9323     6.0000     0.0677     3.9607     3.9607    -0.0000
 32 C      5.8504     6.0000     0.1496     3.8747     3.8747    -0.0000
 33 C      5.9004     6.0000     0.0996     3.9225     3.9225    -0.0000
 34 C      5.6910     6.0000     0.3090     4.0472     4.0472     0.0000
 35 C      5.8211     6.0000     0.1789     3.9493     3.9493    -0.0000
 36 C      6.0700     6.0000    -0.0700     3.9812     3.9812    -0.0000
 37 C      5.8517     6.0000     0.1483     3.9746     3.9746     0.0000
 38 C      5.9125     6.0000     0.0875     3.9869     3.9869    -0.0000
 39 C      5.8626     6.0000     0.1374     3.9415     3.9415     0.0000
 40 C      6.1864     6.0000    -0.1864     4.2335     4.2335     0.0000
 41 C      5.7168     6.0000     0.2832     3.9337     3.9337    -0.0000
 42 C      5.8982     6.0000     0.1018     3.9429     3.9429     0.0000
 43 C      5.9129     6.0000     0.0871     3.9351     3.9351    -0.0000
 44 H      1.0350     1.0000    -0.0350     0.9970     0.9970    -0.0000
 45 H      0.9945     1.0000     0.0055     1.0245     1.0245    -0.0000
 46 H      1.0402     1.0000    -0.0402     0.9827     0.9827    -0.0000
 47 H      1.0267     1.0000    -0.0267     0.9897     0.9897    -0.0000
 48 H      1.0190     1.0000    -0.0190     0.9833     0.9833    -0.0000
 49 H      1.0185     1.0000    -0.0185     0.9918     0.9918    -0.0000
 50 H      1.0052     1.0000    -0.0052     1.0019     1.0019    -0.0000
 51 H      1.0338     1.0000    -0.0338     0.9949     0.9949    -0.0000
 52 H      1.0351     1.0000    -0.0351     0.9884     0.9884    -0.0000
 53 H      1.0189     1.0000    -0.0189     0.9802     0.9802     0.0000
 54 H      1.0064     1.0000    -0.0064     0.9978     0.9978     0.0000
 55 H      1.0154     1.0000    -0.0154     0.9840     0.9840     0.0000
 56 H      1.0169     1.0000    -0.0169     0.9937     0.9937    -0.0000
 57 H      1.0034     1.0000    -0.0034     0.9959     0.9959    -0.0000
 58 H      1.0184     1.0000    -0.0184     0.9722     0.9722    -0.0000
 59 H      1.0259     1.0000    -0.0259     0.9967     0.9967    -0.0000
 60 H      1.0061     1.0000    -0.0061     0.9820     0.9820    -0.0000
 61 H      0.9937     1.0000     0.0063     1.0018     1.0018    -0.0000
 62 H      1.0162     1.0000    -0.0162     0.9994     0.9994     0.0000
 63 H      1.0023     1.0000    -0.0023     1.0011     1.0011     0.0000
 64 H      1.0001     1.0000    -0.0001     0.9994     0.9994    -0.0000
 65 H      1.0090     1.0000    -0.0090     1.0019     1.0019    -0.0000
 66 H      0.9849     1.0000     0.0151     0.9959     0.9959    -0.0000
 67 H      1.0135     1.0000    -0.0135     0.9941     0.9941    -0.0000
 68 H      1.0058     1.0000    -0.0058     1.0005     1.0005    -0.0000
 69 H      1.0067     1.0000    -0.0067     1.0019     1.0019    -0.0000
 70 H      1.0230     1.0000    -0.0230     0.9908     0.9908    -0.0000
 71 H      1.0060     1.0000    -0.0060     0.9856     0.9856    -0.0000
 72 H      1.0248     1.0000    -0.0248     0.9743     0.9743    -0.0000
 73 H      1.0078     1.0000    -0.0078     1.0008     1.0008    -0.0000
 74 H      1.0040     1.0000    -0.0040     0.9905     0.9905    -0.0000
 75 H      0.9964     1.0000     0.0036     0.9909     0.9909    -0.0000
 76 H      1.0199     1.0000    -0.0199     1.0096     1.0096     0.0000
 77 H      1.0009     1.0000    -0.0009     0.9979     0.9979     0.0000
 78 H      0.9916     1.0000     0.0084     1.0005     1.0005     0.0000
 79 H      0.8525     1.0000     0.1475     1.0290     1.0290    -0.0000
 80 H      1.0094     1.0000    -0.0094     1.0086     1.0086     0.0000
 81 H      1.0104     1.0000    -0.0104     0.9806     0.9806     0.0000
 82 H      0.9919     1.0000     0.0081     1.0255     1.0255    -0.0000
 83 H      0.9830     1.0000     0.0170     1.0447     1.0447    -0.0000
 84 H      1.0396     1.0000    -0.0396     0.9972     0.9972     0.0000
 85 H      0.8583     1.0000     0.1417     1.0525     1.0525    -0.0000
 86 H      0.9878     1.0000     0.0122     0.9905     0.9905    -0.0000
 87 H      1.0003     1.0000    -0.0003     1.0053     1.0053    -0.0000
 88 H      1.0283     1.0000    -0.0283     0.9928     0.9928     0.0000
 89 H      1.0106     1.0000    -0.0106     1.0083     1.0083     0.0000
 90 H      1.0302     1.0000    -0.0302     0.9919     0.9919    -0.0000
 91 H      1.0370     1.0000    -0.0370     0.9975     0.9975     0.0000
 92 H      1.0324     1.0000    -0.0324     0.9994     0.9994    -0.0000
 93 H      1.0158     1.0000    -0.0158     0.9968     0.9968     0.0000
 94 H      0.8469     1.0000     0.1531     1.0299     1.0299    -0.0000
 95 H      1.0003     1.0000    -0.0003     1.0119     1.0119     0.0000
 96 H      1.0088     1.0000    -0.0088     0.9899     0.9899     0.0000
 97 H      0.8462     1.0000     0.1538     1.0261     1.0261    -0.0000
 98 H      0.9926     1.0000     0.0074     0.9895     0.9895     0.0000
 99 H      1.0091     1.0000    -0.0091     1.0065     1.0065     0.0000
100 H      0.9857     1.0000     0.0143     0.9886     0.9886     0.0000
101 H      0.9994     1.0000     0.0006     0.9971     0.9971    -0.0000
102 H      0.9900     1.0000     0.0100     0.9882     0.9882     0.0000
103 H      0.9910     1.0000     0.0090     0.9876     0.9876     0.0000
104 H      0.8463     1.0000     0.1537     1.0265     1.0265     0.0000
105 H      0.8443     1.0000     0.1557     1.0293     1.0293     0.0000

  Mayer bond orders larger than 0.100000
B(  0-O , 17-C ) :   1.0605 B(  0-O , 79-H ) :   0.9817 B(  1-O , 26-C ) :   0.9193 
B(  1-O , 34-C ) :   1.0257 B(  2-O , 27-C ) :   1.0586 B(  2-O , 85-H ) :   0.9901 
B(  3-O , 34-C ) :   0.9959 B(  3-O , 38-C ) :   0.9645 B(  4-O , 35-C ) :   1.0464 
B(  4-O , 94-H ) :   0.9847 B(  5-O , 37-C ) :   1.0620 B(  5-O , 97-H ) :   0.9913 
B(  6-O , 39-C ) :   1.0306 B(  6-O ,104-H ) :   0.9883 B(  7-O , 41-C ) :   1.0564 
B(  7-O ,105-H ) :   0.9885 B(  8-C ,  9-C ) :   0.9725 B(  8-C , 10-C ) :   1.0114 
B(  8-C , 14-C ) :   1.0427 B(  8-C , 23-C ) :   1.0541 B(  9-C , 12-C ) :   0.9995 
B(  9-C , 18-C ) :   1.0375 B(  9-C , 24-C ) :   1.0247 B( 10-C , 11-C ) :   0.9849 
B( 10-C , 16-C ) :   1.0565 B( 10-C , 44-H ) :   0.8680 B( 11-C , 13-C ) :   1.0508 
B( 11-C , 22-C ) :   0.9958 B( 11-C , 25-C ) :   1.0608 B( 12-C , 15-C ) :   1.0151 
B( 12-C , 17-C ) :   1.0299 B( 12-C , 45-H ) :   0.8790 B( 13-C , 19-C ) :   1.0510 
B( 13-C , 20-C ) :   1.0114 B( 13-C , 28-C ) :   0.1044 B( 13-C , 46-H ) :   0.8453 
B( 14-C , 19-C ) :   1.1081 B( 14-C , 47-H ) :   0.9033 B( 14-C , 48-H ) :   0.9174 
B( 15-C , 21-C ) :   1.0790 B( 15-C , 26-C ) :   0.9964 B( 15-C , 49-H ) :   0.8726 
B( 16-C , 17-C ) :   1.0643 B( 16-C , 50-H ) :   0.8922 B( 16-C , 51-H ) :   0.9007 
B( 17-C , 52-H ) :   0.8951 B( 18-C , 21-C ) :   1.1175 B( 18-C , 53-H ) :   0.9185 
B( 18-C , 54-H ) :   0.9052 B( 19-C , 55-H ) :   0.9079 B( 19-C , 56-H ) :   0.9001 
B( 20-C , 27-C ) :   0.8976 B( 20-C , 29-C ) :   1.0397 B( 20-C , 30-C ) :   1.0727 
B( 21-C , 57-H ) :   0.9082 B( 21-C , 58-H ) :   0.9101 B( 22-C , 28-C ) :   1.1240 
B( 22-C , 59-H ) :   0.9176 B( 22-C , 60-H ) :   0.8986 B( 23-C , 61-H ) :   0.9418 
B( 23-C , 62-H ) :   0.9371 B( 23-C , 63-H ) :   0.9405 B( 24-C , 64-H ) :   0.9476 
B( 24-C , 65-H ) :   0.9468 B( 24-C , 66-H ) :   0.9406 B( 25-C , 67-H ) :   0.9360 
B( 25-C , 68-H ) :   0.9365 B( 25-C , 69-H ) :   0.9463 B( 26-C , 31-C ) :   1.0327 
B( 26-C , 32-C ) :   1.0752 B( 27-C , 28-C ) :   1.1051 B( 27-C , 70-H ) :   0.9065 
B( 28-C , 71-H ) :   0.9193 B( 28-C , 72-H ) :   0.8847 B( 29-C , 73-H ) :   0.9555 
B( 29-C , 74-H ) :   0.9551 B( 29-C , 75-H ) :   0.9555 B( 30-C , 76-H ) :   0.9474 
B( 30-C , 77-H ) :   0.9482 B( 30-C , 78-H ) :   0.9464 B( 31-C , 33-C ) :   1.0521 
B( 31-C , 80-H ) :   0.9230 B( 31-C , 81-H ) :   0.9090 B( 32-C , 82-H ) :   0.9300 
B( 32-C , 83-H ) :   0.9341 B( 32-C , 84-H ) :   0.9372 B( 33-C , 36-C ) :   1.0293 
B( 33-C , 86-H ) :   0.9029 B( 33-C , 87-H ) :   0.9187 B( 34-C , 35-C ) :   0.9554 
B( 34-C , 88-H ) :   0.8881 B( 35-C , 37-C ) :   0.9790 B( 35-C , 89-H ) :   0.8819 
B( 36-C , 40-C ) :   1.8951 B( 36-C , 90-H ) :   0.9510 B( 37-C , 39-C ) :   0.9802 
B( 37-C , 91-H ) :   0.8844 B( 38-C , 39-C ) :   0.9589 B( 38-C , 41-C ) :   1.0125 
B( 38-C , 92-H ) :   0.8945 B( 39-C , 93-H ) :   0.8916 B( 40-C , 42-C ) :   1.0982 
B( 40-C , 43-C ) :   1.0726 B( 41-C , 95-H ) :   0.9334 B( 41-C , 96-H ) :   0.9330 
B( 42-C , 98-H ) :   0.9449 B( 42-C , 99-H ) :   0.9466 B( 42-C ,100-H ) :   0.9431 
B( 43-C ,101-H ) :   0.9574 B( 43-C ,102-H ) :   0.9504 B( 43-C ,103-H ) :   0.9510 


-------
TIMINGS
-------

Total SCF time: 0 days 0 hours 16 min 27 sec 

Total time                  ....     987.575 sec
Sum of individual times     ....     984.113 sec  ( 99.6%)

Fock matrix formation       ....     936.441 sec  ( 94.8%)
  Split-RI-J                ....     102.886 sec  ( 11.0% of F)
  Chain of spheres X        ....     781.706 sec  ( 83.5% of F)
  XC integration            ....      51.031 sec  (  5.4% of F)
    Basis function eval.    ....      20.448 sec  ( 40.1% of XC)
    Density eval.           ....      15.187 sec  ( 29.8% of XC)
    XC-Functional eval.     ....       2.489 sec  (  4.9% of XC)
    XC-Potential eval.      ....       9.611 sec  ( 18.8% of XC)
Diagonalization             ....       3.101 sec  (  0.3%)
Density matrix formation    ....       0.270 sec  (  0.0%)
Population analysis         ....       0.303 sec  (  0.0%)
Initial guess               ....       6.984 sec  (  0.7%)
Orbital Transformation      ....       0.000 sec  (  0.0%)
Orbital Orthonormalization  ....       0.000 sec  (  0.0%)
DIIS solution               ....       1.170 sec  (  0.1%)
SOSCF solution              ....       1.410 sec  (  0.1%)
Grid generation             ....      34.435 sec  (  3.5%)

Maximum memory used throughout the entire SCF-calculation: 272.1 MB

-------------------------   --------------------
FINAL SINGLE POINT ENERGY     -2008.098462901117
-------------------------   --------------------


                            ***************************************
                            *     ORCA property calculations      *
                            ***************************************

                                    ---------------------
                                    Active property flags
                                    ---------------------
   (+) Dipole Moment


------------------------------------------------------------------------------
                       ORCA ELECTRIC PROPERTIES CALCULATION
------------------------------------------------------------------------------

Dipole Moment Calculation                       ... on
Quadrupole Moment Calculation                   ... off
Polarizability Calculation                      ... off
GBWName                                         ... k/k.gbw
Electron density                                ... k/k.scfp
The origin for moment calculation is the CENTER OF MASS  = ( 0.066164,  0.065890 -0.020091)

-------------
DIPOLE MOMENT
-------------
                                X             Y             Z
Electronic contribution:     23.00750      21.49514      -7.35600
Nuclear contribution   :    -22.66023     -22.49850       6.89771
                        -----------------------------------------
Total Dipole Moment    :      0.34728      -1.00337      -0.45829
                        -----------------------------------------
Magnitude (a.u.)       :      1.15645
Magnitude (Debye)      :      2.93946



--------------------
Rotational spectrum 
--------------------
 
Rotational constants in cm-1:     0.003453     0.001250     0.001075 
Rotational constants in MHz :   103.516591    37.459356    32.217074 

 Dipole components along the rotational axes: 
x,y,z [a.u.] :    -0.329781    -1.006394    -0.464529 
x,y,z [Debye]:    -0.838236    -2.558051    -1.180739 

 

Timings for individual modules:

Sum of individual times         ...      990.963 sec (=  16.516 min)
GTO integral calculation        ...        2.980 sec (=   0.050 min)   0.3 %
SCF iterations                  ...      987.983 sec (=  16.466 min)  99.7 %
                             ****ORCA TERMINATED NORMALLY****
TOTAL RUN TIME: 0 days 0 hours 16 minutes 32 seconds 336 msec
