 Entering Link 1 = C:\G09W\l1.exe PID=     15196.
  
 Copyright (c) 1988,1990,1992,1993,1995,1998,2003,2009,2013,
            Gaussian, Inc.  All Rights Reserved.
  
 This is part of the Gaussian(R) 09 program.  It is based on
 the Gaussian(R) 03 system (copyright 2003, Gaussian, Inc.),
 the Gaussian(R) 98 system (copyright 1998, Gaussian, Inc.),
 the Gaussian(R) 94 system (copyright 1995, Gaussian, Inc.),
 the Gaussian 92(TM) system (copyright 1992, Gaussian, Inc.),
 the Gaussian 90(TM) system (copyright 1990, Gaussian, Inc.),
 the Gaussian 88(TM) system (copyright 1988, Gaussian, Inc.),
 the Gaussian 86(TM) system (copyright 1986, Carnegie Mellon
 University), and the Gaussian 82(TM) system (copyright 1983,
 Carnegie Mellon University). Gaussian is a federally registered
 trademark of Gaussian, Inc.
  
 This software contains proprietary and confidential information,
 including trade secrets, belonging to Gaussian, Inc.
  
 This software is provided under written license and may be
 used, copied, transmitted, or stored only in accord with that
 written license.
  
 The following legend is applicable only to US Government
 contracts under FAR:
  
                    RESTRICTED RIGHTS LEGEND
  
 Use, reproduction and disclosure by the US Government is
 subject to restrictions as set forth in subparagraphs (a)
 and (c) of the Commercial Computer Software - Restricted
 Rights clause in FAR 52.227-19.
  
 Gaussian, Inc.
 340 Quinnipiac St., Bldg. 40, Wallingford CT 06492
  
  
 ---------------------------------------------------------------
 Warning -- This program may not be used in any manner that
 competes with the business of Gaussian, Inc. or will provide
 assistance to any competitor of Gaussian, Inc.  The licensee
 of this program is prohibited from giving any competitor of
 Gaussian, Inc. access to this program.  By using this program,
 the user acknowledges that Gaussian, Inc. is engaged in the
 business of creating and licensing software in the field of
 computational chemistry and represents and warrants to the
 licensee that it is not a competitor of Gaussian, Inc. and that
 it will not use this program in any manner prohibited above.
 ---------------------------------------------------------------
  

 Cite this work as:
 Gaussian 09, Revision D.01,
 M. J. Frisch, G. W. Trucks, H. B. Schlegel, G. E. Scuseria, 
 M. A. Robb, J. R. Cheeseman, G. Scalmani, V. Barone, B. Mennucci, 
 G. A. Petersson, H. Nakatsuji, M. Caricato, X. Li, H. P. Hratchian, 
 A. F. Izmaylov, J. Bloino, G. Zheng, J. L. Sonnenberg, M. Hada, 
 M. Ehara, K. Toyota, R. Fukuda, J. Hasegawa, M. Ishida, T. Nakajima, 
 Y. Honda, O. Kitao, H. Nakai, T. Vreven, J. A. Montgomery, Jr., 
 J. E. Peralta, F. Ogliaro, M. Bearpark, J. J. Heyd, E. Brothers, 
 K. N. Kudin, V. N. Staroverov, T. Keith, R. Kobayashi, J. Normand, 
 K. Raghavachari, A. Rendell, J. C. Burant, S. S. Iyengar, J. Tomasi, 
 M. Cossi, N. Rega, J. M. Millam, M. Klene, J. E. Knox, J. B. Cross, 
 V. Bakken, C. Adamo, J. Jaramillo, R. Gomperts, R. E. Stratmann, 
 O. Yazyev, A. J. Austin, R. Cammi, C. Pomelli, J. W. Ochterski, 
 R. L. Martin, K. Morokuma, V. G. Zakrzewski, G. A. Voth, 
 P. Salvador, J. J. Dannenberg, S. Dapprich, A. D. Daniels, 
 O. Farkas, J. B. Foresman, J. V. Ortiz, J. Cioslowski, 
 and D. J. Fox, Gaussian, Inc., Wallingford CT, 2013.
 
 ******************************************
 Gaussian 09:  IA32W-G09RevD.01 24-Apr-2013
                17-Jul-2024 
 ******************************************
 ----------------------
 # opt b3lyp/6-31++g(d,p)
 ----------------------
 1/14=-1,18=20,19=15,26=3,38=1/1,3;
 2/9=110,12=2,17=6,18=5,40=1/2;
 3/5=1,6=6,7=101,11=2,16=1,25=1,30=1,71=1,74=-5/1,2,3;
 4//1;
 5/5=2,38=5/2;
 6/7=2,8=2,9=2,10=2,28=1/1;
 7//1,2,3,16;
 1/14=-1,18=20,19=15,26=3/3(2);
 2/9=110/2;
 99//99;
 2/9=110/2;
 3/5=1,6=6,7=101,11=2,16=1,25=1,30=1,71=1,74=-5/1,2,3;
 4/5=5,16=3,69=1/1;
 5/5=2,38=5/2;
 7//1,2,3,16;
 1/14=-1,18=20,19=15,26=3/3(-5);
 2/9=110/2;
 6/7=2,8=2,9=2,10=2,19=2,28=1/1;
 99/9=1/99;
 -----
 Title
 -----
 Symbolic Z-matrix:
 Charge =  0 Multiplicity = 1
 O                    -0.404    -2.136    -2.423 
 O                     2.218     0.489    -0.242 
 O                    -8.179     0.308    -1.351 
 O                     3.549     1.734     0.751 
 O                     2.632     2.038    -2.817 
 O                     3.778     4.627    -2.307 
 O                     5.179     4.99      0.167 
 O                     5.228     2.038     3.13 
 C                    -2.318    -0.032     0.811 
 C                    -1.117    -0.991     1.085 
 C                    -3.196    -0.746    -0.266 
 C                    -4.566    -0.066    -0.572 
 C                    -0.289    -1.101    -0.233 
 C                    -5.294     0.078     0.789 
 C                    -3.162     0.186     2.079 
 C                     1.107    -1.589     0.197 
 C                    -2.404    -1.045    -1.54 
 C                    -1.14     -1.887    -1.245 
 C                    -0.061    -0.497     2.084 
 C                    -4.45      0.92      1.743 
 C                    -6.776     0.528     0.718 
 C                     1.178    -1.309     1.719 
 C                    -5.403    -0.989    -1.494 
 C                    -1.778     1.337     0.386 
 C                    -1.62     -2.346     1.602 
 C                    -4.36      1.269    -1.282 
 C                     2.322    -0.926    -0.53 
 C                    -7.553    -0.383    -0.298 
 C                    -6.657    -1.515    -0.823 
 C                    -7.39      0.3       2.108 
 C                    -6.936     2.011     0.393 
 C                     3.632    -1.514     0.059 
 C                     2.294    -1.144    -2.045 
 C                     3.778    -3.006    -0.192 
 C                     3.317     1.29     -0.572 
 C                     2.899     2.468    -1.511 
 C                     4.857    -3.592     0.644 
 C                     4.023     3.542    -1.454 
 C                     4.569     2.72      0.871 
 C                     4.219     3.977     0.027 
 C                     5.83     -4.388     0.181 
 C                     4.645     3.063     2.375 
 C                     5.966    -4.781    -1.245 
 C                     6.863    -4.95      1.094 
 H                    -3.459    -1.748     0.18 
 H                    -0.159    -0.069    -0.662 
 H                    -5.339    -0.963     1.22 
 H                    -3.374    -0.793     2.565 
 H                    -2.575     0.762     2.822 
 H                     1.209    -2.69      0.008 
 H                    -2.152    -0.091    -2.057 
 H                    -3.066    -1.598    -2.246 
 H                    -1.44     -2.877    -0.805 
 H                    -0.369    -0.643     3.135 
 H                     0.112     0.594     1.96 
 H                    -5.03      1.147     2.663 
 H                    -4.199     1.897     1.262 
 H                     2.118    -0.793     2.005 
 H                     1.192    -2.267     2.277 
 H                    -5.68     -0.451    -2.426 
 H                    -4.785    -1.845    -1.849 
 H                    -1.327     1.304    -0.618 
 H                    -2.575     2.101     0.387 
 H                    -0.993     1.675     1.084 
 H                    -2.268    -2.203     2.482 
 H                    -0.793    -3.008     1.891 
 H                    -2.215    -2.877     0.838 
 H                    -5.292     1.652    -1.727 
 H                    -3.603     1.172    -2.076 
 H                    -4.01      2.042    -0.572 
 H                    -8.448    -0.827     0.201 
 H                    -7.224    -2.151    -1.531 
 H                    -6.38     -2.17      0.03 
 H                    -6.789     0.808     2.882 
 H                    -7.424    -0.766     2.371 
 H                    -8.414     0.69      2.167 
 H                    -6.489     2.275    -0.579 
 H                    -6.449     2.637     1.154 
 H                    -7.995     2.3       0.36 
 H                    -1.015    -2.505    -3.047 
 H                     3.647    -1.301     1.153 
 H                     4.504    -0.968    -0.367 
 H                     2.115    -2.2      -2.288 
 H                     1.503    -0.55     -2.524 
 H                     3.246    -0.857    -2.513 
 H                    -7.498     0.726    -1.866 
 H                     2.814    -3.517     0.042 
 H                     3.965    -3.202    -1.273 
 H                     4.203     0.726    -0.975 
 H                     1.915     2.895    -1.207 
 H                     4.818    -3.342     1.713 
 H                     4.975     3.14     -1.877 
 H                     5.539     2.285     0.522 
 H                     3.302     4.474     0.422 
 H                     3.432     1.666    -3.171 
 H                     5.324     3.918     2.542 
 H                     3.647     3.333     2.773 
 H                     2.965     5.033    -2.03 
 H                     6.972    -4.551    -1.62 
 H                     5.239    -4.26     -1.889 
 H                     5.805    -5.861    -1.366 
 H                     6.713    -4.65      2.139 
 H                     7.866    -4.618     0.793 
 H                     6.853    -6.048     1.059 
 H                     5.981     4.688    -0.243 
 H                     4.655     1.283     3.074 
 

 GradGradGradGradGradGradGradGradGradGradGradGradGradGradGradGradGradGrad
 Berny optimization.
 Initialization pass.
                           ----------------------------
                           !    Initial Parameters    !
                           ! (Angstroms and Degrees)  !
 --------------------------                            --------------------------
 ! Name  Definition              Value          Derivative Info.                !
 --------------------------------------------------------------------------------
 ! R1    R(1,18)                 1.4112         estimate D2E/DX2                !
 ! R2    R(1,80)                 0.9481         estimate D2E/DX2                !
 ! R3    R(2,27)                 1.4478         estimate D2E/DX2                !
 ! R4    R(2,35)                 1.3994         estimate D2E/DX2                !
 ! R5    R(3,28)                 1.4065         estimate D2E/DX2                !
 ! R6    R(3,86)                 0.9506         estimate D2E/DX2                !
 ! R7    R(4,35)                 1.4147         estimate D2E/DX2                !
 ! R8    R(4,39)                 1.4237         estimate D2E/DX2                !
 ! R9    R(5,36)                 1.4007         estimate D2E/DX2                !
 ! R10   R(5,95)                 0.9506         estimate D2E/DX2                !
 ! R11   R(6,38)                 1.4017         estimate D2E/DX2                !
 ! R12   R(6,98)                 0.95           estimate D2E/DX2                !
 ! R13   R(7,40)                 1.4026         estimate D2E/DX2                !
 ! R14   R(7,105)                0.95           estimate D2E/DX2                !
 ! R15   R(8,42)                 1.4002         estimate D2E/DX2                !
 ! R16   R(8,106)                0.9495         estimate D2E/DX2                !
 ! R17   R(9,10)                 1.5611         estimate D2E/DX2                !
 ! R18   R(9,11)                 1.5622         estimate D2E/DX2                !
 ! R19   R(9,15)                 1.5387         estimate D2E/DX2                !
 ! R20   R(9,24)                 1.5318         estimate D2E/DX2                !
 ! R21   R(10,13)                1.5604         estimate D2E/DX2                !
 ! R22   R(10,19)                1.5353         estimate D2E/DX2                !
 ! R23   R(10,25)                1.535          estimate D2E/DX2                !
 ! R24   R(11,12)                1.5598         estimate D2E/DX2                !
 ! R25   R(11,17)                1.5296         estimate D2E/DX2                !
 ! R26   R(11,45)                1.1279         estimate D2E/DX2                !
 ! R27   R(12,14)                1.5502         estimate D2E/DX2                !
 ! R28   R(12,23)                1.55           estimate D2E/DX2                !
 ! R29   R(12,26)                1.526          estimate D2E/DX2                !
 ! R30   R(13,16)                1.5401         estimate D2E/DX2                !
 ! R31   R(13,18)                1.5382         estimate D2E/DX2                !
 ! R32   R(13,46)                1.1252         estimate D2E/DX2                !
 ! R33   R(14,20)                1.5269         estimate D2E/DX2                !
 ! R34   R(14,21)                1.5504         estimate D2E/DX2                !
 ! R35   R(14,47)                1.1276         estimate D2E/DX2                !
 ! R36   R(15,20)                1.5201         estimate D2E/DX2                !
 ! R37   R(15,48)                1.1134         estimate D2E/DX2                !
 ! R38   R(15,49)                1.1083         estimate D2E/DX2                !
 ! R39   R(16,22)                1.5492         estimate D2E/DX2                !
 ! R40   R(16,27)                1.5634         estimate D2E/DX2                !
 ! R41   R(16,50)                1.1218         estimate D2E/DX2                !
 ! R42   R(17,18)                1.5472         estimate D2E/DX2                !
 ! R43   R(17,51)                1.114          estimate D2E/DX2                !
 ! R44   R(17,52)                1.1147         estimate D2E/DX2                !
 ! R45   R(18,53)                1.1241         estimate D2E/DX2                !
 ! R46   R(19,22)                1.5257         estimate D2E/DX2                !
 ! R47   R(19,54)                1.1049         estimate D2E/DX2                !
 ! R48   R(19,55)                1.1116         estimate D2E/DX2                !
 ! R49   R(20,56)                1.111          estimate D2E/DX2                !
 ! R50   R(20,57)                1.1175         estimate D2E/DX2                !
 ! R51   R(21,28)                1.5703         estimate D2E/DX2                !
 ! R52   R(21,30)                1.5366         estimate D2E/DX2                !
 ! R53   R(21,31)                1.5266         estimate D2E/DX2                !
 ! R54   R(22,58)                1.1098         estimate D2E/DX2                !
 ! R55   R(22,59)                1.1087         estimate D2E/DX2                !
 ! R56   R(23,29)                1.5164         estimate D2E/DX2                !
 ! R57   R(23,60)                1.1112         estimate D2E/DX2                !
 ! R58   R(23,61)                1.1139         estimate D2E/DX2                !
 ! R59   R(24,62)                1.1011         estimate D2E/DX2                !
 ! R60   R(24,63)                1.104          estimate D2E/DX2                !
 ! R61   R(24,64)                1.1035         estimate D2E/DX2                !
 ! R62   R(25,65)                1.1022         estimate D2E/DX2                !
 ! R63   R(25,66)                1.098          estimate D2E/DX2                !
 ! R64   R(25,67)                1.1044         estimate D2E/DX2                !
 ! R65   R(26,68)                1.1015         estimate D2E/DX2                !
 ! R66   R(26,69)                1.1013         estimate D2E/DX2                !
 ! R67   R(26,70)                1.1064         estimate D2E/DX2                !
 ! R68   R(27,32)                1.552          estimate D2E/DX2                !
 ! R69   R(27,33)                1.5309         estimate D2E/DX2                !
 ! R70   R(28,29)                1.5362         estimate D2E/DX2                !
 ! R71   R(28,71)                1.1168         estimate D2E/DX2                !
 ! R72   R(29,72)                1.1078         estimate D2E/DX2                !
 ! R73   R(29,73)                1.1106         estimate D2E/DX2                !
 ! R74   R(30,74)                1.1038         estimate D2E/DX2                !
 ! R75   R(30,75)                1.0985         estimate D2E/DX2                !
 ! R76   R(30,76)                1.0973         estimate D2E/DX2                !
 ! R77   R(31,77)                1.1019         estimate D2E/DX2                !
 ! R78   R(31,78)                1.0992         estimate D2E/DX2                !
 ! R79   R(31,79)                1.0982         estimate D2E/DX2                !
 ! R80   R(32,34)                1.52           estimate D2E/DX2                !
 ! R81   R(32,81)                1.1146         estimate D2E/DX2                !
 ! R82   R(32,82)                1.1135         estimate D2E/DX2                !
 ! R83   R(33,83)                1.0983         estimate D2E/DX2                !
 ! R84   R(33,84)                1.0991         estimate D2E/DX2                !
 ! R85   R(33,85)                1.099          estimate D2E/DX2                !
 ! R86   R(34,37)                1.4854         estimate D2E/DX2                !
 ! R87   R(34,87)                1.1159         estimate D2E/DX2                !
 ! R88   R(34,88)                1.1144         estimate D2E/DX2                !
 ! R89   R(35,36)                1.5634         estimate D2E/DX2                !
 ! R90   R(35,89)                1.1249         estimate D2E/DX2                !
 ! R91   R(36,38)                1.5557         estimate D2E/DX2                !
 ! R92   R(36,90)                1.1149         estimate D2E/DX2                !
 ! R93   R(37,41)                1.3397         estimate D2E/DX2                !
 ! R94   R(37,91)                1.0985         estimate D2E/DX2                !
 ! R95   R(38,40)                1.556          estimate D2E/DX2                !
 ! R96   R(38,92)                1.1166         estimate D2E/DX2                !
 ! R97   R(39,40)                1.554          estimate D2E/DX2                !
 ! R98   R(39,42)                1.5445         estimate D2E/DX2                !
 ! R99   R(39,93)                1.1189         estimate D2E/DX2                !
 ! R100  R(40,94)                1.1153         estimate D2E/DX2                !
 ! R101  R(41,43)                1.4854         estimate D2E/DX2                !
 ! R102  R(41,44)                1.4888         estimate D2E/DX2                !
 ! R103  R(42,96)                1.1045         estimate D2E/DX2                !
 ! R104  R(42,97)                1.1078         estimate D2E/DX2                !
 ! R105  R(43,99)                1.098          estimate D2E/DX2                !
 ! R106  R(43,100)               1.1021         estimate D2E/DX2                !
 ! R107  R(43,101)               1.0986         estimate D2E/DX2                !
 ! R108  R(44,102)               1.0975         estimate D2E/DX2                !
 ! R109  R(44,103)               1.0986         estimate D2E/DX2                !
 ! R110  R(44,104)               1.0986         estimate D2E/DX2                !
 ! A1    A(18,1,80)            106.3783         estimate D2E/DX2                !
 ! A2    A(27,2,35)            117.1368         estimate D2E/DX2                !
 ! A3    A(28,3,86)            107.6245         estimate D2E/DX2                !
 ! A4    A(35,4,39)            114.4359         estimate D2E/DX2                !
 ! A5    A(36,5,95)            107.8746         estimate D2E/DX2                !
 ! A6    A(38,6,98)            107.6341         estimate D2E/DX2                !
 ! A7    A(40,7,105)           107.7663         estimate D2E/DX2                !
 ! A8    A(42,8,106)           107.3991         estimate D2E/DX2                !
 ! A9    A(10,9,11)            105.8193         estimate D2E/DX2                !
 ! A10   A(10,9,15)            111.3687         estimate D2E/DX2                !
 ! A11   A(10,9,24)            109.0567         estimate D2E/DX2                !
 ! A12   A(11,9,15)            108.9403         estimate D2E/DX2                !
 ! A13   A(11,9,24)            114.5391         estimate D2E/DX2                !
 ! A14   A(15,9,24)            107.1804         estimate D2E/DX2                !
 ! A15   A(9,10,13)            107.6547         estimate D2E/DX2                !
 ! A16   A(9,10,19)            116.4673         estimate D2E/DX2                !
 ! A17   A(9,10,25)            110.4429         estimate D2E/DX2                !
 ! A18   A(13,10,19)           101.9649         estimate D2E/DX2                !
 ! A19   A(13,10,25)           113.3368         estimate D2E/DX2                !
 ! A20   A(19,10,25)           106.8731         estimate D2E/DX2                !
 ! A21   A(9,11,12)            115.4439         estimate D2E/DX2                !
 ! A22   A(9,11,17)            111.8716         estimate D2E/DX2                !
 ! A23   A(9,11,45)            105.3355         estimate D2E/DX2                !
 ! A24   A(12,11,17)           112.123          estimate D2E/DX2                !
 ! A25   A(12,11,45)           105.0743         estimate D2E/DX2                !
 ! A26   A(17,11,45)           106.0473         estimate D2E/DX2                !
 ! A27   A(11,12,14)           106.3044         estimate D2E/DX2                !
 ! A28   A(11,12,23)           109.3526         estimate D2E/DX2                !
 ! A29   A(11,12,26)           110.7379         estimate D2E/DX2                !
 ! A30   A(14,12,23)           108.9027         estimate D2E/DX2                !
 ! A31   A(14,12,26)           112.9927         estimate D2E/DX2                !
 ! A32   A(23,12,26)           108.4862         estimate D2E/DX2                !
 ! A33   A(10,13,16)           105.5153         estimate D2E/DX2                !
 ! A34   A(10,13,18)           107.347          estimate D2E/DX2                !
 ! A35   A(10,13,46)           108.5847         estimate D2E/DX2                !
 ! A36   A(16,13,18)           121.5508         estimate D2E/DX2                !
 ! A37   A(16,13,46)           106.9992         estimate D2E/DX2                !
 ! A38   A(18,13,46)           106.3646         estimate D2E/DX2                !
 ! A39   A(12,14,20)           109.8883         estimate D2E/DX2                !
 ! A40   A(12,14,21)           115.8267         estimate D2E/DX2                !
 ! A41   A(12,14,47)           105.579          estimate D2E/DX2                !
 ! A42   A(20,14,21)           113.3855         estimate D2E/DX2                !
 ! A43   A(20,14,47)           106.9981         estimate D2E/DX2                !
 ! A44   A(21,14,47)           104.3183         estimate D2E/DX2                !
 ! A45   A(9,15,20)            110.55           estimate D2E/DX2                !
 ! A46   A(9,15,48)            109.8512         estimate D2E/DX2                !
 ! A47   A(9,15,49)            109.6064         estimate D2E/DX2                !
 ! A48   A(20,15,48)           111.0845         estimate D2E/DX2                !
 ! A49   A(20,15,49)           110.2429         estimate D2E/DX2                !
 ! A50   A(48,15,49)           105.3788         estimate D2E/DX2                !
 ! A51   A(13,16,22)           104.9859         estimate D2E/DX2                !
 ! A52   A(13,16,27)           116.1183         estimate D2E/DX2                !
 ! A53   A(13,16,50)           110.2663         estimate D2E/DX2                !
 ! A54   A(22,16,27)           110.1564         estimate D2E/DX2                !
 ! A55   A(22,16,50)           109.8015         estimate D2E/DX2                !
 ! A56   A(27,16,50)           105.4984         estimate D2E/DX2                !
 ! A57   A(11,17,18)           111.7518         estimate D2E/DX2                !
 ! A58   A(11,17,51)           109.6502         estimate D2E/DX2                !
 ! A59   A(11,17,52)           108.4814         estimate D2E/DX2                !
 ! A60   A(18,17,51)           111.7003         estimate D2E/DX2                !
 ! A61   A(18,17,52)           109.6319         estimate D2E/DX2                !
 ! A62   A(51,17,52)           105.3829         estimate D2E/DX2                !
 ! A63   A(1,18,13)            110.5373         estimate D2E/DX2                !
 ! A64   A(1,18,17)            111.2823         estimate D2E/DX2                !
 ! A65   A(1,18,53)            108.0912         estimate D2E/DX2                !
 ! A66   A(13,18,17)           107.418          estimate D2E/DX2                !
 ! A67   A(13,18,53)           109.8852         estimate D2E/DX2                !
 ! A68   A(17,18,53)           109.6264         estimate D2E/DX2                !
 ! A69   A(10,19,22)           103.3944         estimate D2E/DX2                !
 ! A70   A(10,19,54)           112.6248         estimate D2E/DX2                !
 ! A71   A(10,19,55)           110.5036         estimate D2E/DX2                !
 ! A72   A(22,19,54)           112.5583         estimate D2E/DX2                !
 ! A73   A(22,19,55)           111.6721         estimate D2E/DX2                !
 ! A74   A(54,19,55)           106.212          estimate D2E/DX2                !
 ! A75   A(14,20,15)           109.8888         estimate D2E/DX2                !
 ! A76   A(14,20,56)           109.9675         estimate D2E/DX2                !
 ! A77   A(14,20,57)           109.7141         estimate D2E/DX2                !
 ! A78   A(15,20,56)           110.9756         estimate D2E/DX2                !
 ! A79   A(15,20,57)           109.0854         estimate D2E/DX2                !
 ! A80   A(56,20,57)           107.1601         estimate D2E/DX2                !
 ! A81   A(14,21,28)           109.5246         estimate D2E/DX2                !
 ! A82   A(14,21,30)           107.305          estimate D2E/DX2                !
 ! A83   A(14,21,31)           113.0716         estimate D2E/DX2                !
 ! A84   A(28,21,30)           107.5467         estimate D2E/DX2                !
 ! A85   A(28,21,31)           111.9605         estimate D2E/DX2                !
 ! A86   A(30,21,31)           107.1483         estimate D2E/DX2                !
 ! A87   A(16,22,19)           107.0987         estimate D2E/DX2                !
 ! A88   A(16,22,58)           112.0886         estimate D2E/DX2                !
 ! A89   A(16,22,59)           109.8071         estimate D2E/DX2                !
 ! A90   A(19,22,58)           112.2556         estimate D2E/DX2                !
 ! A91   A(19,22,59)           110.4698         estimate D2E/DX2                !
 ! A92   A(58,22,59)           105.1498         estimate D2E/DX2                !
 ! A93   A(12,23,29)           112.9482         estimate D2E/DX2                !
 ! A94   A(12,23,60)           110.1941         estimate D2E/DX2                !
 ! A95   A(12,23,61)           110.3405         estimate D2E/DX2                !
 ! A96   A(29,23,60)           109.4469         estimate D2E/DX2                !
 ! A97   A(29,23,61)           109.4678         estimate D2E/DX2                !
 ! A98   A(60,23,61)           104.0677         estimate D2E/DX2                !
 ! A99   A(9,24,62)            111.7514         estimate D2E/DX2                !
 ! A100  A(9,24,63)            111.3289         estimate D2E/DX2                !
 ! A101  A(9,24,64)            110.4282         estimate D2E/DX2                !
 ! A102  A(62,24,63)           108.4958         estimate D2E/DX2                !
 ! A103  A(62,24,64)           107.1309         estimate D2E/DX2                !
 ! A104  A(63,24,64)           107.5182         estimate D2E/DX2                !
 ! A105  A(10,25,65)           110.3064         estimate D2E/DX2                !
 ! A106  A(10,25,66)           111.9645         estimate D2E/DX2                !
 ! A107  A(10,25,67)           111.5901         estimate D2E/DX2                !
 ! A108  A(65,25,66)           108.1128         estimate D2E/DX2                !
 ! A109  A(65,25,67)           107.3357         estimate D2E/DX2                !
 ! A110  A(66,25,67)           107.3357         estimate D2E/DX2                !
 ! A111  A(12,26,68)           112.2049         estimate D2E/DX2                !
 ! A112  A(12,26,69)           110.5588         estimate D2E/DX2                !
 ! A113  A(12,26,70)           110.8142         estimate D2E/DX2                !
 ! A114  A(68,26,69)           108.7202         estimate D2E/DX2                !
 ! A115  A(68,26,70)           106.4978         estimate D2E/DX2                !
 ! A116  A(69,26,70)           107.8633         estimate D2E/DX2                !
 ! A117  A(2,27,16)            105.435          estimate D2E/DX2                !
 ! A118  A(2,27,32)            110.8198         estimate D2E/DX2                !
 ! A119  A(2,27,33)            109.5565         estimate D2E/DX2                !
 ! A120  A(16,27,32)           108.5914         estimate D2E/DX2                !
 ! A121  A(16,27,33)           112.6799         estimate D2E/DX2                !
 ! A122  A(32,27,33)           109.6979         estimate D2E/DX2                !
 ! A123  A(3,28,21)            114.8098         estimate D2E/DX2                !
 ! A124  A(3,28,29)            111.455          estimate D2E/DX2                !
 ! A125  A(3,28,71)             99.9716         estimate D2E/DX2                !
 ! A126  A(21,28,29)           111.101          estimate D2E/DX2                !
 ! A127  A(21,28,71)           109.761          estimate D2E/DX2                !
 ! A128  A(29,28,71)           109.0974         estimate D2E/DX2                !
 ! A129  A(23,29,28)           112.207          estimate D2E/DX2                !
 ! A130  A(23,29,72)           109.8525         estimate D2E/DX2                !
 ! A131  A(23,29,73)           109.7668         estimate D2E/DX2                !
 ! A132  A(28,29,72)           110.0562         estimate D2E/DX2                !
 ! A133  A(28,29,73)           108.5175         estimate D2E/DX2                !
 ! A134  A(72,29,73)           106.2562         estimate D2E/DX2                !
 ! A135  A(21,30,74)           110.3937         estimate D2E/DX2                !
 ! A136  A(21,30,75)           111.8971         estimate D2E/DX2                !
 ! A137  A(21,30,76)           111.6406         estimate D2E/DX2                !
 ! A138  A(74,30,75)           107.1928         estimate D2E/DX2                !
 ! A139  A(74,30,76)           107.8681         estimate D2E/DX2                !
 ! A140  A(75,30,76)           107.6461         estimate D2E/DX2                !
 ! A141  A(21,31,77)           112.2101         estimate D2E/DX2                !
 ! A142  A(21,31,78)           111.065          estimate D2E/DX2                !
 ! A143  A(21,31,79)           111.2906         estimate D2E/DX2                !
 ! A144  A(77,31,78)           107.1292         estimate D2E/DX2                !
 ! A145  A(77,31,79)           107.5542         estimate D2E/DX2                !
 ! A146  A(78,31,79)           107.3479         estimate D2E/DX2                !
 ! A147  A(27,32,34)           112.9725         estimate D2E/DX2                !
 ! A148  A(27,32,81)           108.1459         estimate D2E/DX2                !
 ! A149  A(27,32,82)           109.2701         estimate D2E/DX2                !
 ! A150  A(34,32,81)           110.3867         estimate D2E/DX2                !
 ! A151  A(34,32,82)           110.054          estimate D2E/DX2                !
 ! A152  A(81,32,82)           105.7382         estimate D2E/DX2                !
 ! A153  A(27,33,83)           111.0305         estimate D2E/DX2                !
 ! A154  A(27,33,84)           111.562          estimate D2E/DX2                !
 ! A155  A(27,33,85)           111.6178         estimate D2E/DX2                !
 ! A156  A(83,33,84)           107.8137         estimate D2E/DX2                !
 ! A157  A(83,33,85)           107.3416         estimate D2E/DX2                !
 ! A158  A(84,33,85)           107.2605         estimate D2E/DX2                !
 ! A159  A(32,34,37)           111.3501         estimate D2E/DX2                !
 ! A160  A(32,34,87)           109.3838         estimate D2E/DX2                !
 ! A161  A(32,34,88)           110.4221         estimate D2E/DX2                !
 ! A162  A(37,34,87)           109.1989         estimate D2E/DX2                !
 ! A163  A(37,34,88)           110.7718         estimate D2E/DX2                !
 ! A164  A(87,34,88)           105.5354         estimate D2E/DX2                !
 ! A165  A(2,35,4)              95.043          estimate D2E/DX2                !
 ! A166  A(2,35,36)            111.2819         estimate D2E/DX2                !
 ! A167  A(2,35,89)            114.5845         estimate D2E/DX2                !
 ! A168  A(4,35,36)            111.6579         estimate D2E/DX2                !
 ! A169  A(4,35,89)            111.2979         estimate D2E/DX2                !
 ! A170  A(36,35,89)           111.9122         estimate D2E/DX2                !
 ! A171  A(5,36,35)            112.3139         estimate D2E/DX2                !
 ! A172  A(5,36,38)            112.5718         estimate D2E/DX2                !
 ! A173  A(5,36,90)            101.7463         estimate D2E/DX2                !
 ! A174  A(35,36,38)           107.7589         estimate D2E/DX2                !
 ! A175  A(35,36,90)           111.1489         estimate D2E/DX2                !
 ! A176  A(38,36,90)           111.3022         estimate D2E/DX2                !
 ! A177  A(34,37,41)           124.5737         estimate D2E/DX2                !
 ! A178  A(34,37,91)           115.6008         estimate D2E/DX2                !
 ! A179  A(41,37,91)           119.8229         estimate D2E/DX2                !
 ! A180  A(6,38,36)            112.6934         estimate D2E/DX2                !
 ! A181  A(6,38,40)            112.6334         estimate D2E/DX2                !
 ! A182  A(6,38,92)            101.3708         estimate D2E/DX2                !
 ! A183  A(36,38,40)           108.5963         estimate D2E/DX2                !
 ! A184  A(36,38,92)           110.7061         estimate D2E/DX2                !
 ! A185  A(40,38,92)           110.7215         estimate D2E/DX2                !
 ! A186  A(4,39,40)            110.6744         estimate D2E/DX2                !
 ! A187  A(4,39,42)            105.7316         estimate D2E/DX2                !
 ! A188  A(4,39,93)            108.9992         estimate D2E/DX2                !
 ! A189  A(40,39,42)           111.1202         estimate D2E/DX2                !
 ! A190  A(40,39,93)           109.8966         estimate D2E/DX2                !
 ! A191  A(42,39,93)           110.3295         estimate D2E/DX2                !
 ! A192  A(7,40,38)            112.5277         estimate D2E/DX2                !
 ! A193  A(7,40,39)            112.0755         estimate D2E/DX2                !
 ! A194  A(7,40,94)            101.8618         estimate D2E/DX2                !
 ! A195  A(38,40,39)           108.6136         estimate D2E/DX2                !
 ! A196  A(38,40,94)           110.9842         estimate D2E/DX2                !
 ! A197  A(39,40,94)           110.688          estimate D2E/DX2                !
 ! A198  A(37,41,43)           123.7444         estimate D2E/DX2                !
 ! A199  A(37,41,44)           121.084          estimate D2E/DX2                !
 ! A200  A(43,41,44)           115.1711         estimate D2E/DX2                !
 ! A201  A(8,42,39)            112.5192         estimate D2E/DX2                !
 ! A202  A(8,42,96)            103.2487         estimate D2E/DX2                !
 ! A203  A(8,42,97)            111.087          estimate D2E/DX2                !
 ! A204  A(39,42,96)           110.4503         estimate D2E/DX2                !
 ! A205  A(39,42,97)           111.0779         estimate D2E/DX2                !
 ! A206  A(96,42,97)           108.1086         estimate D2E/DX2                !
 ! A207  A(41,43,99)           110.8758         estimate D2E/DX2                !
 ! A208  A(41,43,100)          112.0545         estimate D2E/DX2                !
 ! A209  A(41,43,101)          110.6346         estimate D2E/DX2                !
 ! A210  A(99,43,100)          107.8051         estimate D2E/DX2                !
 ! A211  A(99,43,101)          107.6127         estimate D2E/DX2                !
 ! A212  A(100,43,101)         107.679          estimate D2E/DX2                !
 ! A213  A(41,44,102)          112.6992         estimate D2E/DX2                !
 ! A214  A(41,44,103)          110.5721         estimate D2E/DX2                !
 ! A215  A(41,44,104)          110.5746         estimate D2E/DX2                !
 ! A216  A(102,44,103)         107.6416         estimate D2E/DX2                !
 ! A217  A(102,44,104)         107.595          estimate D2E/DX2                !
 ! A218  A(103,44,104)         107.5555         estimate D2E/DX2                !
 ! D1    D(80,1,18,13)        -171.9097         estimate D2E/DX2                !
 ! D2    D(80,1,18,17)         -52.6363         estimate D2E/DX2                !
 ! D3    D(80,1,18,53)          67.7925         estimate D2E/DX2                !
 ! D4    D(35,2,27,16)         168.7396         estimate D2E/DX2                !
 ! D5    D(35,2,27,32)          51.4271         estimate D2E/DX2                !
 ! D6    D(35,2,27,33)         -69.7551         estimate D2E/DX2                !
 ! D7    D(27,2,35,4)         -119.827          estimate D2E/DX2                !
 ! D8    D(27,2,35,36)         124.5793         estimate D2E/DX2                !
 ! D9    D(27,2,35,89)          -3.6369         estimate D2E/DX2                !
 ! D10   D(86,3,28,21)          63.494          estimate D2E/DX2                !
 ! D11   D(86,3,28,29)         -63.9382         estimate D2E/DX2                !
 ! D12   D(86,3,28,71)        -179.1536         estimate D2E/DX2                !
 ! D13   D(39,4,35,2)         -174.5564         estimate D2E/DX2                !
 ! D14   D(39,4,35,36)         -59.2737         estimate D2E/DX2                !
 ! D15   D(39,4,35,89)          66.5837         estimate D2E/DX2                !
 ! D16   D(35,4,39,40)          59.1308         estimate D2E/DX2                !
 ! D17   D(35,4,39,42)         179.5558         estimate D2E/DX2                !
 ! D18   D(35,4,39,93)         -61.8423         estimate D2E/DX2                !
 ! D19   D(95,5,36,35)         -62.0453         estimate D2E/DX2                !
 ! D20   D(95,5,36,38)          59.8017         estimate D2E/DX2                !
 ! D21   D(95,5,36,90)         179.0289         estimate D2E/DX2                !
 ! D22   D(98,6,38,36)          60.7611         estimate D2E/DX2                !
 ! D23   D(98,6,38,40)         -62.5275         estimate D2E/DX2                !
 ! D24   D(98,6,38,92)         179.1213         estimate D2E/DX2                !
 ! D25   D(105,7,40,38)        -54.547          estimate D2E/DX2                !
 ! D26   D(105,7,40,39)         68.212          estimate D2E/DX2                !
 ! D27   D(105,7,40,94)       -173.4463         estimate D2E/DX2                !
 ! D28   D(106,8,42,39)        -64.5892         estimate D2E/DX2                !
 ! D29   D(106,8,42,96)        176.32           estimate D2E/DX2                !
 ! D30   D(106,8,42,97)         60.6603         estimate D2E/DX2                !
 ! D31   D(11,9,10,13)          64.2036         estimate D2E/DX2                !
 ! D32   D(11,9,10,19)         177.8748         estimate D2E/DX2                !
 ! D33   D(11,9,10,25)         -60.0108         estimate D2E/DX2                !
 ! D34   D(15,9,10,13)        -177.5592         estimate D2E/DX2                !
 ! D35   D(15,9,10,19)         -63.8879         estimate D2E/DX2                !
 ! D36   D(15,9,10,25)          58.2264         estimate D2E/DX2                !
 ! D37   D(24,9,10,13)         -59.4772         estimate D2E/DX2                !
 ! D38   D(24,9,10,19)          54.1941         estimate D2E/DX2                !
 ! D39   D(24,9,10,25)         176.3084         estimate D2E/DX2                !
 ! D40   D(10,9,11,12)         172.2273         estimate D2E/DX2                !
 ! D41   D(10,9,11,17)         -57.9525         estimate D2E/DX2                !
 ! D42   D(10,9,11,45)          56.816          estimate D2E/DX2                !
 ! D43   D(15,9,11,12)          52.3846         estimate D2E/DX2                !
 ! D44   D(15,9,11,17)        -177.7952         estimate D2E/DX2                !
 ! D45   D(15,9,11,45)         -63.0267         estimate D2E/DX2                !
 ! D46   D(24,9,11,12)         -67.6133         estimate D2E/DX2                !
 ! D47   D(24,9,11,17)          62.2069         estimate D2E/DX2                !
 ! D48   D(24,9,11,45)         176.9754         estimate D2E/DX2                !
 ! D49   D(10,9,15,20)        -170.2427         estimate D2E/DX2                !
 ! D50   D(10,9,15,48)         -47.2995         estimate D2E/DX2                !
 ! D51   D(10,9,15,49)          68.0356         estimate D2E/DX2                !
 ! D52   D(11,9,15,20)         -53.8992         estimate D2E/DX2                !
 ! D53   D(11,9,15,48)          69.044          estimate D2E/DX2                !
 ! D54   D(11,9,15,49)        -175.6209         estimate D2E/DX2                !
 ! D55   D(24,9,15,20)          70.5513         estimate D2E/DX2                !
 ! D56   D(24,9,15,48)        -166.5055         estimate D2E/DX2                !
 ! D57   D(24,9,15,49)         -51.1704         estimate D2E/DX2                !
 ! D58   D(10,9,24,62)          70.4018         estimate D2E/DX2                !
 ! D59   D(10,9,24,63)        -168.1009         estimate D2E/DX2                !
 ! D60   D(10,9,24,64)         -48.7434         estimate D2E/DX2                !
 ! D61   D(11,9,24,62)         -47.9416         estimate D2E/DX2                !
 ! D62   D(11,9,24,63)          73.5557         estimate D2E/DX2                !
 ! D63   D(11,9,24,64)        -167.0868         estimate D2E/DX2                !
 ! D64   D(15,9,24,62)        -168.9144         estimate D2E/DX2                !
 ! D65   D(15,9,24,63)         -47.4171         estimate D2E/DX2                !
 ! D66   D(15,9,24,64)          71.9404         estimate D2E/DX2                !
 ! D67   D(9,10,13,16)         159.4701         estimate D2E/DX2                !
 ! D68   D(9,10,13,18)         -69.562          estimate D2E/DX2                !
 ! D69   D(9,10,13,46)          45.0483         estimate D2E/DX2                !
 ! D70   D(19,10,13,16)         36.4079         estimate D2E/DX2                !
 ! D71   D(19,10,13,18)        167.3758         estimate D2E/DX2                !
 ! D72   D(19,10,13,46)        -78.0139         estimate D2E/DX2                !
 ! D73   D(25,10,13,16)        -78.0838         estimate D2E/DX2                !
 ! D74   D(25,10,13,18)         52.8841         estimate D2E/DX2                !
 ! D75   D(25,10,13,46)        167.4944         estimate D2E/DX2                !
 ! D76   D(9,10,19,22)        -157.8312         estimate D2E/DX2                !
 ! D77   D(9,10,19,54)          80.4013         estimate D2E/DX2                !
 ! D78   D(9,10,19,55)         -38.2045         estimate D2E/DX2                !
 ! D79   D(13,10,19,22)        -40.9707         estimate D2E/DX2                !
 ! D80   D(13,10,19,54)       -162.7382         estimate D2E/DX2                !
 ! D81   D(13,10,19,55)         78.656          estimate D2E/DX2                !
 ! D82   D(25,10,19,22)         78.2008         estimate D2E/DX2                !
 ! D83   D(25,10,19,54)        -43.5667         estimate D2E/DX2                !
 ! D84   D(25,10,19,55)       -162.1725         estimate D2E/DX2                !
 ! D85   D(9,10,25,65)         -54.2777         estimate D2E/DX2                !
 ! D86   D(9,10,25,66)        -174.7202         estimate D2E/DX2                !
 ! D87   D(9,10,25,67)          64.9395         estimate D2E/DX2                !
 ! D88   D(13,10,25,65)       -175.1628         estimate D2E/DX2                !
 ! D89   D(13,10,25,66)         64.3947         estimate D2E/DX2                !
 ! D90   D(13,10,25,67)        -55.9455         estimate D2E/DX2                !
 ! D91   D(19,10,25,65)         73.3189         estimate D2E/DX2                !
 ! D92   D(19,10,25,66)        -47.1236         estimate D2E/DX2                !
 ! D93   D(19,10,25,67)       -167.4638         estimate D2E/DX2                !
 ! D94   D(9,11,12,14)         -54.41           estimate D2E/DX2                !
 ! D95   D(9,11,12,23)        -171.8284         estimate D2E/DX2                !
 ! D96   D(9,11,12,26)          68.6778         estimate D2E/DX2                !
 ! D97   D(17,11,12,14)        175.8919         estimate D2E/DX2                !
 ! D98   D(17,11,12,23)         58.4735         estimate D2E/DX2                !
 ! D99   D(17,11,12,26)        -61.0203         estimate D2E/DX2                !
 ! D100  D(45,11,12,14)         61.1502         estimate D2E/DX2                !
 ! D101  D(45,11,12,23)        -56.2681         estimate D2E/DX2                !
 ! D102  D(45,11,12,26)       -175.7619         estimate D2E/DX2                !
 ! D103  D(9,11,17,18)          56.1655         estimate D2E/DX2                !
 ! D104  D(9,11,17,51)         -68.2497         estimate D2E/DX2                !
 ! D105  D(9,11,17,52)         177.1469         estimate D2E/DX2                !
 ! D106  D(12,11,17,18)       -172.3108         estimate D2E/DX2                !
 ! D107  D(12,11,17,51)         63.2741         estimate D2E/DX2                !
 ! D108  D(12,11,17,52)        -51.3293         estimate D2E/DX2                !
 ! D109  D(45,11,17,18)        -58.1653         estimate D2E/DX2                !
 ! D110  D(45,11,17,51)        177.4196         estimate D2E/DX2                !
 ! D111  D(45,11,17,52)         62.8162         estimate D2E/DX2                !
 ! D112  D(11,12,14,20)         59.1238         estimate D2E/DX2                !
 ! D113  D(11,12,14,21)       -170.784          estimate D2E/DX2                !
 ! D114  D(11,12,14,47)        -55.9385         estimate D2E/DX2                !
 ! D115  D(23,12,14,20)        176.8411         estimate D2E/DX2                !
 ! D116  D(23,12,14,21)        -53.0667         estimate D2E/DX2                !
 ! D117  D(23,12,14,47)         61.7788         estimate D2E/DX2                !
 ! D118  D(26,12,14,20)        -62.5367         estimate D2E/DX2                !
 ! D119  D(26,12,14,21)         67.5555         estimate D2E/DX2                !
 ! D120  D(26,12,14,47)       -177.599          estimate D2E/DX2                !
 ! D121  D(11,12,23,29)        114.4138         estimate D2E/DX2                !
 ! D122  D(11,12,23,60)       -122.8372         estimate D2E/DX2                !
 ! D123  D(11,12,23,61)         -8.4711         estimate D2E/DX2                !
 ! D124  D(14,12,23,29)         -1.3578         estimate D2E/DX2                !
 ! D125  D(14,12,23,60)        121.3913         estimate D2E/DX2                !
 ! D126  D(14,12,23,61)       -124.2427         estimate D2E/DX2                !
 ! D127  D(26,12,23,29)       -124.7129         estimate D2E/DX2                !
 ! D128  D(26,12,23,60)         -1.9638         estimate D2E/DX2                !
 ! D129  D(26,12,23,61)        112.4022         estimate D2E/DX2                !
 ! D130  D(11,12,26,68)        166.0114         estimate D2E/DX2                !
 ! D131  D(11,12,26,69)         44.4556         estimate D2E/DX2                !
 ! D132  D(11,12,26,70)        -75.0864         estimate D2E/DX2                !
 ! D133  D(14,12,26,68)        -74.861          estimate D2E/DX2                !
 ! D134  D(14,12,26,69)        163.5832         estimate D2E/DX2                !
 ! D135  D(14,12,26,70)         44.0411         estimate D2E/DX2                !
 ! D136  D(23,12,26,68)         45.9982         estimate D2E/DX2                !
 ! D137  D(23,12,26,69)        -75.5577         estimate D2E/DX2                !
 ! D138  D(23,12,26,70)        164.9003         estimate D2E/DX2                !
 ! D139  D(10,13,16,22)        -17.5548         estimate D2E/DX2                !
 ! D140  D(10,13,16,27)       -139.4608         estimate D2E/DX2                !
 ! D141  D(10,13,16,50)        100.6532         estimate D2E/DX2                !
 ! D142  D(18,13,16,22)       -139.8018         estimate D2E/DX2                !
 ! D143  D(18,13,16,27)         98.2922         estimate D2E/DX2                !
 ! D144  D(18,13,16,50)        -21.5938         estimate D2E/DX2                !
 ! D145  D(46,13,16,22)         97.9597         estimate D2E/DX2                !
 ! D146  D(46,13,16,27)        -23.9463         estimate D2E/DX2                !
 ! D147  D(46,13,16,50)       -143.8323         estimate D2E/DX2                !
 ! D148  D(10,13,18,1)        -174.4743         estimate D2E/DX2                !
 ! D149  D(10,13,18,17)         63.9413         estimate D2E/DX2                !
 ! D150  D(10,13,18,53)        -55.2563         estimate D2E/DX2                !
 ! D151  D(16,13,18,1)         -53.0982         estimate D2E/DX2                !
 ! D152  D(16,13,18,17)       -174.6826         estimate D2E/DX2                !
 ! D153  D(16,13,18,53)         66.1199         estimate D2E/DX2                !
 ! D154  D(46,13,18,1)          69.44           estimate D2E/DX2                !
 ! D155  D(46,13,18,17)        -52.1444         estimate D2E/DX2                !
 ! D156  D(46,13,18,53)       -171.342          estimate D2E/DX2                !
 ! D157  D(12,14,20,15)        -65.6605         estimate D2E/DX2                !
 ! D158  D(12,14,20,56)        171.8962         estimate D2E/DX2                !
 ! D159  D(12,14,20,57)         54.2735         estimate D2E/DX2                !
 ! D160  D(21,14,20,15)        162.9493         estimate D2E/DX2                !
 ! D161  D(21,14,20,56)         40.506          estimate D2E/DX2                !
 ! D162  D(21,14,20,57)        -77.1168         estimate D2E/DX2                !
 ! D163  D(47,14,20,15)         48.4965         estimate D2E/DX2                !
 ! D164  D(47,14,20,56)        -73.9468         estimate D2E/DX2                !
 ! D165  D(47,14,20,57)        168.4304         estimate D2E/DX2                !
 ! D166  D(12,14,21,28)         50.8892         estimate D2E/DX2                !
 ! D167  D(12,14,21,30)        167.3459         estimate D2E/DX2                !
 ! D168  D(12,14,21,31)        -74.7247         estimate D2E/DX2                !
 ! D169  D(20,14,21,28)        179.2826         estimate D2E/DX2                !
 ! D170  D(20,14,21,30)        -64.2606         estimate D2E/DX2                !
 ! D171  D(20,14,21,31)         53.6688         estimate D2E/DX2                !
 ! D172  D(47,14,21,28)        -64.6716         estimate D2E/DX2                !
 ! D173  D(47,14,21,30)         51.7851         estimate D2E/DX2                !
 ! D174  D(47,14,21,31)        169.7145         estimate D2E/DX2                !
 ! D175  D(9,15,20,14)          62.3058         estimate D2E/DX2                !
 ! D176  D(9,15,20,56)        -175.8499         estimate D2E/DX2                !
 ! D177  D(9,15,20,57)         -58.0097         estimate D2E/DX2                !
 ! D178  D(48,15,20,14)        -59.9172         estimate D2E/DX2                !
 ! D179  D(48,15,20,56)         61.9272         estimate D2E/DX2                !
 ! D180  D(48,15,20,57)        179.7673         estimate D2E/DX2                !
 ! D181  D(49,15,20,14)       -176.3485         estimate D2E/DX2                !
 ! D182  D(49,15,20,56)        -54.5042         estimate D2E/DX2                !
 ! D183  D(49,15,20,57)         63.336          estimate D2E/DX2                !
 ! D184  D(13,16,22,19)         -8.1377         estimate D2E/DX2                !
 ! D185  D(13,16,22,58)       -131.6749         estimate D2E/DX2                !
 ! D186  D(13,16,22,59)        111.8414         estimate D2E/DX2                !
 ! D187  D(27,16,22,19)        117.5746         estimate D2E/DX2                !
 ! D188  D(27,16,22,58)         -5.9626         estimate D2E/DX2                !
 ! D189  D(27,16,22,59)       -122.4463         estimate D2E/DX2                !
 ! D190  D(50,16,22,19)       -126.6596         estimate D2E/DX2                !
 ! D191  D(50,16,22,58)        109.8032         estimate D2E/DX2                !
 ! D192  D(50,16,22,59)         -6.6805         estimate D2E/DX2                !
 ! D193  D(13,16,27,2)          59.7181         estimate D2E/DX2                !
 ! D194  D(13,16,27,32)        178.5278         estimate D2E/DX2                !
 ! D195  D(13,16,27,33)        -59.7374         estimate D2E/DX2                !
 ! D196  D(22,16,27,2)         -59.4088         estimate D2E/DX2                !
 ! D197  D(22,16,27,32)         59.4009         estimate D2E/DX2                !
 ! D198  D(22,16,27,33)       -178.8643         estimate D2E/DX2                !
 ! D199  D(50,16,27,2)        -177.8506         estimate D2E/DX2                !
 ! D200  D(50,16,27,32)        -59.0409         estimate D2E/DX2                !
 ! D201  D(50,16,27,33)         62.694          estimate D2E/DX2                !
 ! D202  D(11,17,18,1)        -178.9111         estimate D2E/DX2                !
 ! D203  D(11,17,18,13)        -57.7939         estimate D2E/DX2                !
 ! D204  D(11,17,18,53)         61.5694         estimate D2E/DX2                !
 ! D205  D(51,17,18,1)         -55.6501         estimate D2E/DX2                !
 ! D206  D(51,17,18,13)         65.4671         estimate D2E/DX2                !
 ! D207  D(51,17,18,53)       -175.1695         estimate D2E/DX2                !
 ! D208  D(52,17,18,1)          60.7782         estimate D2E/DX2                !
 ! D209  D(52,17,18,13)       -178.1046         estimate D2E/DX2                !
 ! D210  D(52,17,18,53)        -58.7413         estimate D2E/DX2                !
 ! D211  D(10,19,22,16)         30.9921         estimate D2E/DX2                !
 ! D212  D(10,19,22,58)        154.4265         estimate D2E/DX2                !
 ! D213  D(10,19,22,59)        -88.5621         estimate D2E/DX2                !
 ! D214  D(54,19,22,16)        152.8043         estimate D2E/DX2                !
 ! D215  D(54,19,22,58)        -83.7614         estimate D2E/DX2                !
 ! D216  D(54,19,22,59)         33.2501         estimate D2E/DX2                !
 ! D217  D(55,19,22,16)        -87.8291         estimate D2E/DX2                !
 ! D218  D(55,19,22,58)         35.6052         estimate D2E/DX2                !
 ! D219  D(55,19,22,59)        152.6167         estimate D2E/DX2                !
 ! D220  D(14,21,28,3)        -122.6919         estimate D2E/DX2                !
 ! D221  D(14,21,28,29)          4.9198         estimate D2E/DX2                !
 ! D222  D(14,21,28,71)        125.6679         estimate D2E/DX2                !
 ! D223  D(30,21,28,3)         121.0043         estimate D2E/DX2                !
 ! D224  D(30,21,28,29)       -111.384          estimate D2E/DX2                !
 ! D225  D(30,21,28,71)          9.3641         estimate D2E/DX2                !
 ! D226  D(31,21,28,3)           3.5575         estimate D2E/DX2                !
 ! D227  D(31,21,28,29)        131.1692         estimate D2E/DX2                !
 ! D228  D(31,21,28,71)       -108.0826         estimate D2E/DX2                !
 ! D229  D(14,21,30,74)         54.2656         estimate D2E/DX2                !
 ! D230  D(14,21,30,75)        -65.0293         estimate D2E/DX2                !
 ! D231  D(14,21,30,76)        174.2436         estimate D2E/DX2                !
 ! D232  D(28,21,30,74)        172.0181         estimate D2E/DX2                !
 ! D233  D(28,21,30,75)         52.7232         estimate D2E/DX2                !
 ! D234  D(28,21,30,76)        -68.0039         estimate D2E/DX2                !
 ! D235  D(31,21,30,74)        -67.4493         estimate D2E/DX2                !
 ! D236  D(31,21,30,75)        173.2558         estimate D2E/DX2                !
 ! D237  D(31,21,30,76)         52.5287         estimate D2E/DX2                !
 ! D238  D(14,21,31,77)         59.9948         estimate D2E/DX2                !
 ! D239  D(14,21,31,78)        -59.8846         estimate D2E/DX2                !
 ! D240  D(14,21,31,79)       -179.4243         estimate D2E/DX2                !
 ! D241  D(28,21,31,77)        -64.2992         estimate D2E/DX2                !
 ! D242  D(28,21,31,78)        175.8214         estimate D2E/DX2                !
 ! D243  D(28,21,31,79)         56.2817         estimate D2E/DX2                !
 ! D244  D(30,21,31,77)        178.0157         estimate D2E/DX2                !
 ! D245  D(30,21,31,78)         58.1363         estimate D2E/DX2                !
 ! D246  D(30,21,31,79)        -61.4034         estimate D2E/DX2                !
 ! D247  D(12,23,29,28)         56.1821         estimate D2E/DX2                !
 ! D248  D(12,23,29,72)        178.9488         estimate D2E/DX2                !
 ! D249  D(12,23,29,73)        -64.5633         estimate D2E/DX2                !
 ! D250  D(60,23,29,28)        -66.9823         estimate D2E/DX2                !
 ! D251  D(60,23,29,72)         55.7843         estimate D2E/DX2                !
 ! D252  D(60,23,29,73)        172.2723         estimate D2E/DX2                !
 ! D253  D(61,23,29,28)        179.5512         estimate D2E/DX2                !
 ! D254  D(61,23,29,72)        -57.6821         estimate D2E/DX2                !
 ! D255  D(61,23,29,73)         58.8058         estimate D2E/DX2                !
 ! D256  D(2,27,32,34)         178.8698         estimate D2E/DX2                !
 ! D257  D(2,27,32,81)          56.3837         estimate D2E/DX2                !
 ! D258  D(2,27,32,82)         -58.2591         estimate D2E/DX2                !
 ! D259  D(16,27,32,34)         63.5087         estimate D2E/DX2                !
 ! D260  D(16,27,32,81)        -58.9774         estimate D2E/DX2                !
 ! D261  D(16,27,32,82)       -173.6202         estimate D2E/DX2                !
 ! D262  D(33,27,32,34)        -60.0314         estimate D2E/DX2                !
 ! D263  D(33,27,32,81)        177.4826         estimate D2E/DX2                !
 ! D264  D(33,27,32,82)         62.8398         estimate D2E/DX2                !
 ! D265  D(2,27,33,83)        -165.6049         estimate D2E/DX2                !
 ! D266  D(2,27,33,84)         -45.3169         estimate D2E/DX2                !
 ! D267  D(2,27,33,85)          74.6685         estimate D2E/DX2                !
 ! D268  D(16,27,33,83)        -48.5684         estimate D2E/DX2                !
 ! D269  D(16,27,33,84)         71.7196         estimate D2E/DX2                !
 ! D270  D(16,27,33,85)       -168.295          estimate D2E/DX2                !
 ! D271  D(32,27,33,83)         72.5377         estimate D2E/DX2                !
 ! D272  D(32,27,33,84)       -167.1743         estimate D2E/DX2                !
 ! D273  D(32,27,33,85)        -47.189          estimate D2E/DX2                !
 ! D274  D(3,28,29,23)          71.607          estimate D2E/DX2                !
 ! D275  D(3,28,29,72)         -51.0446         estimate D2E/DX2                !
 ! D276  D(3,28,29,73)        -166.9289         estimate D2E/DX2                !
 ! D277  D(21,28,29,23)        -57.8061         estimate D2E/DX2                !
 ! D278  D(21,28,29,72)        179.5424         estimate D2E/DX2                !
 ! D279  D(21,28,29,73)         63.6581         estimate D2E/DX2                !
 ! D280  D(71,28,29,23)       -178.9447         estimate D2E/DX2                !
 ! D281  D(71,28,29,72)         58.4038         estimate D2E/DX2                !
 ! D282  D(71,28,29,73)        -57.4805         estimate D2E/DX2                !
 ! D283  D(27,32,34,37)       -166.5717         estimate D2E/DX2                !
 ! D284  D(27,32,34,87)        -45.7862         estimate D2E/DX2                !
 ! D285  D(27,32,34,88)         69.9336         estimate D2E/DX2                !
 ! D286  D(81,32,34,37)        -45.3462         estimate D2E/DX2                !
 ! D287  D(81,32,34,87)         75.4393         estimate D2E/DX2                !
 ! D288  D(81,32,34,88)       -168.8409         estimate D2E/DX2                !
 ! D289  D(82,32,34,37)         70.9942         estimate D2E/DX2                !
 ! D290  D(82,32,34,87)       -168.2203         estimate D2E/DX2                !
 ! D291  D(82,32,34,88)        -52.5005         estimate D2E/DX2                !
 ! D292  D(32,34,37,41)       -131.0344         estimate D2E/DX2                !
 ! D293  D(32,34,37,91)         49.5624         estimate D2E/DX2                !
 ! D294  D(87,34,37,41)        108.0716         estimate D2E/DX2                !
 ! D295  D(87,34,37,91)        -71.3315         estimate D2E/DX2                !
 ! D296  D(88,34,37,41)         -7.7392         estimate D2E/DX2                !
 ! D297  D(88,34,37,91)        172.8577         estimate D2E/DX2                !
 ! D298  D(2,35,36,5)          -73.6021         estimate D2E/DX2                !
 ! D299  D(2,35,36,38)         161.8486         estimate D2E/DX2                !
 ! D300  D(2,35,36,90)          39.6462         estimate D2E/DX2                !
 ! D301  D(4,35,36,5)         -178.4456         estimate D2E/DX2                !
 ! D302  D(4,35,36,38)          57.005          estimate D2E/DX2                !
 ! D303  D(4,35,36,90)         -65.1973         estimate D2E/DX2                !
 ! D304  D(89,35,36,5)          56.0357         estimate D2E/DX2                !
 ! D305  D(89,35,36,38)        -68.5137         estimate D2E/DX2                !
 ! D306  D(89,35,36,90)        169.284          estimate D2E/DX2                !
 ! D307  D(5,36,38,6)           53.1271         estimate D2E/DX2                !
 ! D308  D(5,36,38,40)         178.6344         estimate D2E/DX2                !
 ! D309  D(5,36,38,92)         -59.6113         estimate D2E/DX2                !
 ! D310  D(35,36,38,6)         177.5212         estimate D2E/DX2                !
 ! D311  D(35,36,38,40)        -56.9714         estimate D2E/DX2                !
 ! D312  D(35,36,38,92)         64.7828         estimate D2E/DX2                !
 ! D313  D(90,36,38,6)         -60.3712         estimate D2E/DX2                !
 ! D314  D(90,36,38,40)         65.1362         estimate D2E/DX2                !
 ! D315  D(90,36,38,92)       -173.1096         estimate D2E/DX2                !
 ! D316  D(34,37,41,43)          0.6536         estimate D2E/DX2                !
 ! D317  D(34,37,41,44)       -179.0727         estimate D2E/DX2                !
 ! D318  D(91,37,41,43)       -179.9669         estimate D2E/DX2                !
 ! D319  D(91,37,41,44)          0.3068         estimate D2E/DX2                !
 ! D320  D(6,38,40,7)          -51.8964         estimate D2E/DX2                !
 ! D321  D(6,38,40,39)        -176.5791         estimate D2E/DX2                !
 ! D322  D(6,38,40,94)          61.521          estimate D2E/DX2                !
 ! D323  D(36,38,40,7)        -177.4389         estimate D2E/DX2                !
 ! D324  D(36,38,40,39)         57.8785         estimate D2E/DX2                !
 ! D325  D(36,38,40,94)        -64.0214         estimate D2E/DX2                !
 ! D326  D(92,38,40,7)          60.8163         estimate D2E/DX2                !
 ! D327  D(92,38,40,39)        -63.8663         estimate D2E/DX2                !
 ! D328  D(92,38,40,94)        174.2337         estimate D2E/DX2                !
 ! D329  D(4,39,40,7)          177.5794         estimate D2E/DX2                !
 ! D330  D(4,39,40,38)         -57.4713         estimate D2E/DX2                !
 ! D331  D(4,39,40,94)          64.6091         estimate D2E/DX2                !
 ! D332  D(42,39,40,7)          60.4227         estimate D2E/DX2                !
 ! D333  D(42,39,40,38)       -174.6279         estimate D2E/DX2                !
 ! D334  D(42,39,40,94)        -52.5475         estimate D2E/DX2                !
 ! D335  D(93,39,40,7)         -61.981          estimate D2E/DX2                !
 ! D336  D(93,39,40,38)         62.9683         estimate D2E/DX2                !
 ! D337  D(93,39,40,94)       -174.9513         estimate D2E/DX2                !
 ! D338  D(4,39,42,8)           72.5206         estimate D2E/DX2                !
 ! D339  D(4,39,42,96)        -172.6834         estimate D2E/DX2                !
 ! D340  D(4,39,42,97)         -52.7339         estimate D2E/DX2                !
 ! D341  D(40,39,42,8)        -167.346          estimate D2E/DX2                !
 ! D342  D(40,39,42,96)        -52.5499         estimate D2E/DX2                !
 ! D343  D(40,39,42,97)         67.3995         estimate D2E/DX2                !
 ! D344  D(93,39,42,8)         -45.1932         estimate D2E/DX2                !
 ! D345  D(93,39,42,96)         69.6029         estimate D2E/DX2                !
 ! D346  D(93,39,42,97)       -170.4477         estimate D2E/DX2                !
 ! D347  D(37,41,43,99)        126.4029         estimate D2E/DX2                !
 ! D348  D(37,41,43,100)         5.8982         estimate D2E/DX2                !
 ! D349  D(37,41,43,101)      -114.2793         estimate D2E/DX2                !
 ! D350  D(44,41,43,99)        -53.8561         estimate D2E/DX2                !
 ! D351  D(44,41,43,100)      -174.3608         estimate D2E/DX2                !
 ! D352  D(44,41,43,101)        65.4617         estimate D2E/DX2                !
 ! D353  D(37,41,44,102)         0.8578         estimate D2E/DX2                !
 ! D354  D(37,41,44,103)      -119.6646         estimate D2E/DX2                !
 ! D355  D(37,41,44,104)       121.3224         estimate D2E/DX2                !
 ! D356  D(43,41,44,102)      -178.8907         estimate D2E/DX2                !
 ! D357  D(43,41,44,103)        60.5868         estimate D2E/DX2                !
 ! D358  D(43,41,44,104)       -58.4262         estimate D2E/DX2                !
 --------------------------------------------------------------------------------
 Trust Radius=3.00D-01 FncErr=1.00D-07 GrdErr=1.00D-06
 Number of steps in this run=    636 maximum allowed number of steps=    636.
 GradGradGradGradGradGradGradGradGradGradGradGradGradGradGradGradGradGrad

 Stoichiometry    C36H62O8
 Framework group  C1[X(C36H62O8)]
 Deg. of freedom   312
 Full point group                 C1      NOp   1
 Largest Abelian subgroup         C1      NOp   1
 Largest concise Abelian subgroup C1      NOp   1
                         Standard orientation:                         
 ---------------------------------------------------------------------
 Center     Atomic      Atomic             Coordinates (Angstroms)
 Number     Number       Type             X           Y           Z
 ---------------------------------------------------------------------
      1          8           0        0.403980    2.136050   -2.423041
      2          8           0       -2.218057   -0.488913   -0.242041
      3          8           0        8.178946   -0.308059   -1.351041
      4          8           0       -3.549074   -1.733895    0.750959
      5          8           0       -2.632078   -2.037907   -2.817041
      6          8           0       -3.778115   -4.626891   -2.307041
      7          8           0       -5.179120   -4.989872    0.166959
      8          8           0       -5.228078   -2.037871    3.129959
      9          6           0        2.317951    0.032023    0.810959
     10          6           0        1.116964    0.991040    1.084959
     11          6           0        3.195961    0.746011   -0.266041
     12          6           0        4.565951    0.065991   -0.572041
     13          6           0        0.288966    1.101051   -0.233041
     14          6           0        5.293949   -0.078019    0.788959
     15          6           0        3.161948   -0.185989    2.078959
     16          6           0       -1.107027    1.589071    0.196959
     17          6           0        2.403965    1.045022   -1.540041
     18          6           0        1.139977    1.887040   -1.245041
     19          6           0        0.060957    0.497055    2.083959
     20          6           0        4.449937   -0.920007    1.742959
     21          6           0        6.775943   -0.528040    0.717959
     22          6           0       -1.178031    1.309072    1.718959
     23          6           0        5.402964    0.988980   -1.494041
     24          6           0        1.777932   -1.336969    0.385959
     25          6           0        1.619983    2.346033    1.601959
     26          6           0        4.359932   -1.269006   -1.282041
     27          6           0       -2.322037    0.926088   -0.530041
     28          6           0        7.552956    0.382950   -0.298041
     29          6           0        6.656972    1.514962   -0.823041
     30          6           0        7.389946   -0.300048    2.107959
     31          6           0        6.935922   -2.011042    0.392959
     32          6           0       -3.632028    1.514107    0.058959
     33          6           0       -2.294034    1.144088   -2.045041
     34          6           0       -3.778008    3.006109   -0.192041
     35          6           0       -3.317068   -1.289898   -0.572041
     36          6           0       -2.899084   -2.467904   -1.511041
     37          6           0       -4.856999    3.592124    0.643959
     38          6           0       -4.023099   -3.541888   -1.454041
     39          6           0       -4.569088   -2.719880    0.870959
     40          6           0       -4.219106   -3.976885    0.026959
     41          6           0       -5.829988    4.388137    0.180959
     42          6           0       -4.645093   -3.062879    2.374959
     43          6           0       -5.965983    4.781139   -1.245041
     44          6           0       -6.862980    4.950152    1.093959
     45          1           0        3.458975    1.748007    0.179959
     46          1           0        0.158951    0.069053   -0.662041
     47          1           0        5.338964    0.962981    1.219959
     48          1           0        3.373961    0.793008    2.564959
     49          1           0        2.574940   -0.761981    2.821959
     50          1           0       -1.209012    2.690073    0.007959
     51          1           0        2.151952    0.091025   -2.057041
     52          1           0        3.065973    1.598013   -2.246041
     53          1           0        1.439991    2.877035   -0.805041
     54          1           0        0.368959    0.643050    3.134959
     55          1           0       -0.112058   -0.593943    1.959959
     56          1           0        5.029934   -1.147015    2.662959
     57          1           0        4.198924   -1.897003    1.261959
     58          1           0       -2.118039    0.793085    2.004959
     59          1           0       -1.192018    2.267072    2.276959
     60          1           0        5.679957    0.450976   -2.426041
     61          1           0        4.784976    1.844988   -1.849041
     62          1           0        1.326932   -1.303963   -0.618041
     63          1           0        2.574921   -2.100981    0.386959
     64          1           0        0.992927   -1.674958    1.083959
     65          1           0        2.267981    2.203024    2.481959
     66          1           0        0.792993    3.008044    1.890959
     67          1           0        2.214991    2.877024    0.837959
     68          1           0        5.291927   -1.652019   -1.727041
     69          1           0        3.602934   -1.171995   -2.076041
     70          1           0        4.009922   -2.042001   -0.572041
     71          1           0        8.447962    0.826937    0.200959
     72          1           0        7.223980    2.150954   -1.531041
     73          1           0        6.379981    2.169966    0.029959
     74          1           0        6.788939   -0.808040    2.881959
     75          1           0        7.423961    0.765951    2.370959
     76          1           0        8.413941   -0.690063    2.166959
     77          1           0        6.488918   -2.275036   -0.579041
     78          1           0        6.448913   -2.637035    1.153959
     79          1           0        7.994918   -2.300057    0.359959
     80          1           0        1.014985    2.505041   -3.047041
     81          1           0       -3.647031    1.301107    1.152959
     82          1           0       -4.504036    0.968119   -0.367041
     83          1           0       -2.115019    2.200085   -2.288041
     84          1           0       -1.503042    0.550077   -2.524041
     85          1           0       -3.246038    0.857101   -2.513041
     86          1           0        7.497940   -0.726050   -1.866041
     87          1           0       -2.814000    3.517095    0.041959
     88          1           0       -3.965005    3.202111   -1.273041
     89          1           0       -4.203060   -0.725885   -0.975041
     90          1           0       -1.915090   -2.894918   -1.207041
     91          1           0       -4.818003    3.342123    1.712959
     92          1           0       -4.975094   -3.139875   -1.877041
     93          1           0       -5.539082   -2.284867    0.521959
     94          1           0       -3.302113   -4.473898    0.421959
     95          1           0       -3.432073   -1.665896   -3.171041
     96          1           0       -5.324105   -3.917870    2.541959
     97          1           0       -3.647097   -3.332893    2.772959
     98          1           0       -2.965120   -5.032903   -2.030041
     99          1           0       -6.971986    4.551153   -1.620041
    100          1           0       -5.238990    4.260129   -1.889041
    101          1           0       -5.804967    5.861137   -1.366041
    102          1           0       -6.712984    4.650150    2.138959
    103          1           0       -7.865985    4.618166    0.792959
    104          1           0       -6.852965    6.048152    1.058959
    105          1           0       -5.981116   -4.687860   -0.243041
    106          1           0       -4.655068   -1.282879    3.073959
 ---------------------------------------------------------------------
 Rotational constants (GHZ):      0.1035808      0.0374847      0.0322390
 Standard basis: 6-31G++(d,p) (6D, 7F)
 There are   970 symmetry adapted cartesian basis functions of A   symmetry.
 There are   970 symmetry adapted basis functions of A   symmetry.
   970 basis functions,  1666 primitive gaussians,   970 cartesian basis functions
   171 alpha electrons      171 beta electrons
       nuclear repulsion energy      6167.0861203855 Hartrees.
 NAtoms=  106 NActive=  106 NUniq=  106 SFac= 1.00D+00 NAtFMM=   60 NAOKFM=T Big=T
 Integral buffers will be    262144 words long.
 Raffenetti 2 integral format.
 Two-electron integral symmetry is turned on.
 One-electron integrals computed using PRISM.
 NBasis=   970 RedAO= T EigKep=  1.09D-03  NBF=   970
 NBsUse=   970 1.00D-06 EigRej= -1.00D+00 NBFU=   970
 ExpMin= 1.61D-01 ExpMax= 5.48D+03 ExpMxC= 8.25D+02 IAcc=1 IRadAn=         1 AccDes= 0.00D+00
 Harris functional with IExCor=  402 and IRadAn=       1 diagonalized for initial guess.
 HarFok:  IExCor=  402 AccDes= 0.00D+00 IRadAn=         1 IDoV= 1 UseB2=F ITyADJ=14
 ICtDFT=  3500011 ScaDFX=  1.000000  1.000000  1.000000  1.000000
 FoFCou: FMM=F IPFlag=           0 FMFlag=      100000 FMFlg1=        2001
         NFxFlg=           0 DoJE=T BraDBF=F KetDBF=T FulRan=T
         wScrn=  0.000000 ICntrl=     500 IOpCl=  0 I1Cent=   200000004 NGrid=           0
         NMat0=    1 NMatS0=      1 NMatT0=    0 NMatD0=    1 NMtDS0=    0 NMtDT0=    0
 Petite list used in FoFCou.
 Requested convergence on RMS density matrix=1.00D-08 within 128 cycles.
 Requested convergence on MAX density matrix=1.00D-06.
 Requested convergence on             energy=1.00D-06.
 No special actions if energy rises.
 Integral accuracy reduced to 1.0D-05 until final iterations.
 Initial convergence to 1.0D-05 achieved.  Increase integral accuracy.
 SCF Done:  E(RB3LYP) =  -2010.89299447     A.U. after   14 cycles
            NFock= 14  Conv=0.42D-08     -V/T= 2.0090

 **********************************************************************

            Population analysis using the SCF density.

 **********************************************************************

 Orbital symmetries:
       Occupied  (A) (A) (A) (A) (A) (A) (A) (A) (A) (A) (A) (A)
                 (A) (A) (A) (A) (A) (A) (A) (A) (A) (A) (A) (A)
                 (A) (A) (A) (A) (A) (A) (A) (A) (A) (A) (A) (A)
                 (A) (A) (A) (A) (A) (A) (A) (A) (A) (A) (A) (A)
                 (A) (A) (A) (A) (A) (A) (A) (A) (A) (A) (A) (A)
                 (A) (A) (A) (A) (A) (A) (A) (A) (A) (A) (A) (A)
                 (A) (A) (A) (A) (A) (A) (A) (A) (A) (A) (A) (A)
                 (A) (A) (A) (A) (A) (A) (A) (A) (A) (A) (A) (A)
                 (A) (A) (A) (A) (A) (A) (A) (A) (A) (A) (A) (A)
                 (A) (A) (A) (A) (A) (A) (A) (A) (A) (A) (A) (A)
                 (A) (A) (A) (A) (A) (A) (A) (A) (A) (A) (A) (A)
                 (A) (A) (A) (A) (A) (A) (A) (A) (A) (A) (A) (A)
                 (A) (A) (A) (A) (A) (A) (A) (A) (A) (A) (A) (A)
                 (A) (A) (A) (A) (A) (A) (A) (A) (A) (A) (A) (A)
                 (A) (A) (A)
       Virtual   (A) (A) (A) (A) (A) (A) (A) (A) (A) (A) (A) (A)
                 (A) (A) (A) (A) (A) (A) (A) (A) (A) (A) (A) (A)
                 (A) (A) (A) (A) (A) (A) (A) (A) (A) (A) (A) (A)
                 (A) (A) (A) (A) (A) (A) (A) (A) (A) (A) (A) (A)
                 (A) (A) (A) (A) (A) (A) (A) (A) (A) (A) (A) (A)
                 (A) (A) (A) (A) (A) (A) (A) (A) (A) (A) (A) (A)
                 (A) (A) (A) (A) (A) (A) (A) (A) (A) (A) (A) (A)
                 (A) (A) (A) (A) (A) (A) (A) (A) (A) (A) (A) (A)
                 (A) (A) (A) (A) (A) (A) (A) (A) (A) (A) (A) (A)
                 (A) (A) (A) (A) (A) (A) (A) (A) (A) (A) (A) (A)
                 (A) (A) (A) (A) (A) (A) (A) (A) (A) (A) (A) (A)
                 (A) (A) (A) (A) (A) (A) (A) (A) (A) (A) (A) (A)
                 (A) (A) (A) (A) (A) (A) (A) (A) (A) (A) (A) (A)
                 (A) (A) (A) (A) (A) (A) (A) (A) (A) (A) (A) (A)
                 (A) (A) (A) (A) (A) (A) (A) (A) (A) (A) (A) (A)
                 (A) (A) (A) (A) (A) (A) (A) (A) (A) (A) (A) (A)
                 (A) (A) (A) (A) (A) (A) (A) (A) (A) (A) (A) (A)
[...]
 Alpha virt. eigenvalues --    0.85440   0.85983   0.86178   0.86620   0.86751
 Alpha virt. eigenvalues --    0.86828   0.87222   0.87306   0.87908   0.88078
 Alpha virt. eigenvalues --    0.88372   0.88463   0.88875   0.89195   0.89259
 Alpha virt. eigenvalues --    0.89687   0.89833   0.90110   0.90178   0.90716
 Alpha virt. eigenvalues --    0.90809   0.91051   0.91741   0.91898   0.92148
 Alpha virt. eigenvalues --    0.92202   0.92453   0.92701   0.93228   0.93350
 Alpha virt. eigenvalues --    0.93449   0.93787   0.94306   0.94573   0.94905
 Alpha virt. eigenvalues --    0.95066   0.95322   0.95546   0.95936   0.96116
 Alpha virt. eigenvalues --    0.96474   0.96912   0.97423   0.97857   0.98580
 Alpha virt. eigenvalues --    0.99202   0.99349   0.99629   1.00398   1.00616
 Alpha virt. eigenvalues --    1.00915   1.01259   1.01535   1.01710   1.02023
 Alpha virt. eigenvalues --    1.02443   1.03150   1.03419   1.03800   1.04229
 Alpha virt. eigenvalues --    1.04370   1.04886   1.05267   1.05842   1.06806
 Alpha virt. eigenvalues --    1.07048   1.07557   1.07745   1.08608   1.09068
 Alpha virt. eigenvalues --    1.09736   1.10675   1.10840   1.11746   1.13129
 Alpha virt. eigenvalues --    1.14422   1.14542   1.14934   1.16427   1.16954
 Alpha virt. eigenvalues --    1.18211   1.18628   1.18731   1.18863   1.19729
 Alpha virt. eigenvalues --    1.20051   1.20918   1.21324   1.21517   1.21890
 Alpha virt. eigenvalues --    1.22336   1.22828   1.24172   1.24659   1.25149
 Alpha virt. eigenvalues --    1.26024   1.27033   1.27670   1.28510   1.28887
 Alpha virt. eigenvalues --    1.29309   1.29654   1.31506   1.31970   1.32295
 Alpha virt. eigenvalues --    1.33024   1.34011   1.34672   1.35465   1.36106
 Alpha virt. eigenvalues --    1.36893   1.37416   1.37838   1.38350   1.39289
 Alpha virt. eigenvalues --    1.39655   1.40529   1.41427   1.42641   1.43022
 Alpha virt. eigenvalues --    1.43931   1.44761   1.45411   1.46107   1.46335
 Alpha virt. eigenvalues --    1.47241   1.47774   1.49681   1.50637   1.50902
 Alpha virt. eigenvalues --    1.51418   1.51817   1.52930   1.53263   1.53408
 Alpha virt. eigenvalues --    1.54682   1.55273   1.55343   1.55745   1.56701
 Alpha virt. eigenvalues --    1.57089   1.58050   1.58245   1.58472   1.59054
 Alpha virt. eigenvalues --    1.59256   1.60248   1.60442   1.61671   1.63094
 Alpha virt. eigenvalues --    1.63468   1.64015   1.65187   1.66118   1.66658
 Alpha virt. eigenvalues --    1.67106   1.67883   1.68280   1.69012   1.69517
 Alpha virt. eigenvalues --    1.69713   1.70063   1.70633   1.71278   1.71947
 Alpha virt. eigenvalues --    1.72474   1.72596   1.73123   1.73669   1.73981
 Alpha virt. eigenvalues --    1.74774   1.75783   1.76213   1.77125   1.77291
 Alpha virt. eigenvalues --    1.77948   1.78216   1.78828   1.78870   1.79283
 Alpha virt. eigenvalues --    1.79766   1.79897   1.80176   1.80352   1.81219
 Alpha virt. eigenvalues --    1.81659   1.81964   1.82380   1.82780   1.83100
 Alpha virt. eigenvalues --    1.83511   1.84529   1.84678   1.84912   1.85118
 Alpha virt. eigenvalues --    1.85340   1.86055   1.86305   1.86735   1.87094
 Alpha virt. eigenvalues --    1.87775   1.88167   1.88386   1.89013   1.89324
 Alpha virt. eigenvalues --    1.89731   1.89771   1.90381   1.90676   1.91027
 Alpha virt. eigenvalues --    1.91146   1.91775   1.92002   1.92251   1.92323
 Alpha virt. eigenvalues --    1.93044   1.93512   1.94084   1.94651   1.94947
 Alpha virt. eigenvalues --    1.95235   1.96433   1.96546   1.96801   1.97268
 Alpha virt. eigenvalues --    1.98173   1.98464   1.98652   1.98847   1.99090
 Alpha virt. eigenvalues --    2.00064   2.00360   2.00865   2.01136   2.01265
 Alpha virt. eigenvalues --    2.01598   2.02210   2.02481   2.02978   2.03298
 Alpha virt. eigenvalues --    2.03595   2.03961   2.04676   2.05069   2.05204
 Alpha virt. eigenvalues --    2.05527   2.05609   2.05908   2.06590   2.06853
 Alpha virt. eigenvalues --    2.07394   2.07769   2.07942   2.08084   2.08425
 Alpha virt. eigenvalues --    2.08578   2.09416   2.09560   2.09782   2.10329
 Alpha virt. eigenvalues --    2.10481   2.10894   2.11640   2.12080   2.12359
 Alpha virt. eigenvalues --    2.13417   2.13591   2.13777   2.13833   2.13998
 Alpha virt. eigenvalues --    2.14206   2.14537   2.14750   2.15059   2.15551
 Alpha virt. eigenvalues --    2.16209   2.16320   2.17049   2.17356   2.17736
 Alpha virt. eigenvalues --    2.17918   2.18139   2.18657   2.19124   2.19360
 Alpha virt. eigenvalues --    2.19405   2.19864   2.20092   2.20734   2.21325
 Alpha virt. eigenvalues --    2.21425   2.21776   2.22448   2.22854   2.23402
 Alpha virt. eigenvalues --    2.24613   2.24692   2.24972   2.25485   2.26127
 Alpha virt. eigenvalues --    2.27257   2.27481   2.27653   2.27982   2.28229
 Alpha virt. eigenvalues --    2.28647   2.29244   2.29562   2.30143   2.30463
 Alpha virt. eigenvalues --    2.30596   2.31397   2.32012   2.32595   2.33308
 Alpha virt. eigenvalues --    2.34019   2.34456   2.35011   2.35196   2.35652
 Alpha virt. eigenvalues --    2.36131   2.37088   2.37825   2.38143   2.38600
 Alpha virt. eigenvalues --    2.38755   2.39406   2.39533   2.40050   2.40428
 Alpha virt. eigenvalues --    2.40866   2.41610   2.42155   2.42343   2.42565
 Alpha virt. eigenvalues --    2.42896   2.43963   2.44057   2.44370   2.44676
 Alpha virt. eigenvalues --    2.44861   2.46102   2.46430   2.46937   2.47867
 Alpha virt. eigenvalues --    2.47978   2.48439   2.48486   2.48652   2.49069
 Alpha virt. eigenvalues --    2.50650   2.51279   2.51335   2.51884   2.52513
 Alpha virt. eigenvalues --    2.52982   2.53769   2.54084   2.54712   2.55419
 Alpha virt. eigenvalues --    2.55824   2.56326   2.56728   2.57151   2.57811
 Alpha virt. eigenvalues --    2.57926   2.58292   2.59739   2.60031   2.60580
 Alpha virt. eigenvalues --    2.60763   2.61039   2.61710   2.62409   2.63004
 Alpha virt. eigenvalues --    2.63344   2.63646   2.64169   2.64663   2.64899
 Alpha virt. eigenvalues --    2.65370   2.65806   2.66164   2.66422   2.67304
 Alpha virt. eigenvalues --    2.67703   2.68116   2.68587   2.69218   2.69580
 Alpha virt. eigenvalues --    2.69870   2.70296   2.70877   2.71365   2.71493
 Alpha virt. eigenvalues --    2.71986   2.72467   2.72730   2.73568   2.73936
 Alpha virt. eigenvalues --    2.74071   2.74457   2.74756   2.75397   2.75852
 Alpha virt. eigenvalues --    2.76428   2.76505   2.77021   2.77448   2.78231
 Alpha virt. eigenvalues --    2.78990   2.79355   2.79617   2.79772   2.80064
 Alpha virt. eigenvalues --    2.80099   2.81207   2.81619   2.81975   2.82382
 Alpha virt. eigenvalues --    2.83234   2.83620   2.83743   2.84456   2.84720
 Alpha virt. eigenvalues --    2.84957   2.85129   2.85307   2.85632   2.86050
 Alpha virt. eigenvalues --    2.86377   2.86775   2.87181   2.87771   2.87972
 Alpha virt. eigenvalues --    2.88306   2.88550   2.88835   2.89106   2.89336
 Alpha virt. eigenvalues --    2.89692   2.90159   2.90327   2.90981   2.91598
 Alpha virt. eigenvalues --    2.91734   2.92136   2.92611   2.92925   2.93122
 Alpha virt. eigenvalues --    2.93408   2.93784   2.94029   2.94509   2.95546
 Alpha virt. eigenvalues --    2.96034   2.96526   2.97339   2.97730   2.98045
 Alpha virt. eigenvalues --    2.99033   2.99257   3.00963   3.01559   3.01730
 Alpha virt. eigenvalues --    3.02573   3.02818   3.03368   3.03833   3.04642
 Alpha virt. eigenvalues --    3.06489   3.06820   3.08948   3.10574   3.11303
 Alpha virt. eigenvalues --    3.11512   3.12065   3.12634   3.13151   3.15387
 Alpha virt. eigenvalues --    3.18370   3.19105   3.20911   3.21369   3.22184
 Alpha virt. eigenvalues --    3.23628   3.24106   3.25766   3.26615   3.26698
 Alpha virt. eigenvalues --    3.27671   3.28025   3.28577   3.29766   3.30641
 Alpha virt. eigenvalues --    3.31664   3.31944   3.33073   3.34022   3.35793
 Alpha virt. eigenvalues --    3.36366   3.37005   3.37861   3.39781   3.40503
 Alpha virt. eigenvalues --    3.40948   3.41556   3.42110   3.42751   3.43722
 Alpha virt. eigenvalues --    3.44103   3.44347   3.44638   3.45448   3.45972
 Alpha virt. eigenvalues --    3.46164   3.46379   3.46882   3.47139   3.47251
 Alpha virt. eigenvalues --    3.47881   3.48944   3.49358   3.49731   3.49979
 Alpha virt. eigenvalues --    3.50485   3.51159   3.51255   3.51607   3.51813
 Alpha virt. eigenvalues --    3.52221   3.53239   3.53587   3.53626   3.54059
 Alpha virt. eigenvalues --    3.54290   3.54682   3.55090   3.55949   3.56822
 Alpha virt. eigenvalues --    3.58224   3.58718   3.59786   3.60427   3.61638
 Alpha virt. eigenvalues --    3.88981   3.95248   4.05860   4.11919   4.13411
 Alpha virt. eigenvalues --    4.15852   4.17059   4.25663   4.25759   4.32776
 Alpha virt. eigenvalues --    4.34241   4.37101   4.40686   4.42063   4.44192
 Alpha virt. eigenvalues --    4.45064   4.45968   4.48555   4.49725   4.50589
 Alpha virt. eigenvalues --    4.51319   4.52422   4.54288   4.55130   4.61219
 Alpha virt. eigenvalues --    4.62036   4.63534   4.64911   4.66263   4.67277
 Alpha virt. eigenvalues --    4.67594   4.70125   4.74136   4.75579   4.79677
 Alpha virt. eigenvalues --    4.80531   4.83305   4.84518   4.86998   4.87587
 Alpha virt. eigenvalues --    4.91669   4.97361   4.99174   5.03031
          Condensed to atoms (all electrons):
 Mulliken charges:
               1
     1  O   -0.557012
     2  O   -0.542163
     3  O   -0.548373
     4  O   -0.539641
     5  O   -0.545443
     6  O   -0.563420
     7  O   -0.555910
     8  O   -0.551394
     9  C    0.052631
    10  C    0.031063
    11  C   -0.073895
    12  C    0.065664
    13  C   -0.078964
    14  C   -0.045046
    15  C   -0.184338
    16  C   -0.067445
    17  C   -0.207056
    18  C    0.177460
    19  C   -0.185248
    20  C   -0.192292
    21  C    0.020547
    22  C   -0.201066
    23  C   -0.177238
    24  C   -0.329173
    25  C   -0.329522
    26  C   -0.338411
    27  C    0.255248
    28  C    0.189482
    29  C   -0.220172
    30  C   -0.316336
    31  C   -0.292704
    32  C   -0.170923
    33  C   -0.321791
    34  C   -0.220165
    35  C    0.454531
    36  C    0.152548
    37  C   -0.118045
    38  C    0.087981
    39  C    0.139064
    40  C    0.181546
    41  C    0.135088
    42  C    0.061564
    43  C   -0.367103
    44  C   -0.361034
    45  H    0.069803
    46  H    0.127727
    47  H    0.066387
    48  H    0.084385
    49  H    0.080981
    50  H    0.083063
    51  H    0.109018
    52  H    0.067372
    53  H    0.061960
    54  H    0.077561
    55  H    0.105773
    56  H    0.083603
    57  H    0.094717
    58  H    0.104561
    59  H    0.087947
    60  H    0.091249
    61  H    0.084315
    62  H    0.121187
    63  H    0.088793
    64  H    0.091004
    65  H    0.100199
    66  H    0.100978
    67  H    0.097911
    68  H    0.133911
    69  H    0.088803
    70  H    0.090642
    71  H    0.067568
    72  H    0.076047
    73  H    0.096422
    74  H    0.101282
    75  H    0.094026
    76  H    0.098192
    77  H    0.117719
    78  H    0.089625
    79  H    0.095257
    80  H    0.298034
    81  H    0.097514
    82  H    0.098408
    83  H    0.115077
    84  H    0.139298
    85  H    0.085326
    86  H    0.301336
    87  H    0.101196
    88  H    0.096681
    89  H    0.081527
    90  H    0.080095
    91  H    0.066595
    92  H    0.118430
    93  H    0.095462
    94  H    0.067589
    95  H    0.314099
    96  H    0.126181
    97  H    0.081609
    98  H    0.308238
    99  H    0.116074
   100  H    0.107034
   101  H    0.109800
   102  H    0.105171
   103  H    0.113234
   104  H    0.106723
   105  H    0.314919
   106  H    0.321271
 Sum of Mulliken charges =   0.00000
 Mulliken charges with hydrogens summed into heavy atoms:
               1
     1  O   -0.258978
     2  O   -0.542163
     3  O   -0.247037
     4  O   -0.539641
     5  O   -0.231345
     6  O   -0.255182
     7  O   -0.240992
     8  O   -0.230123
     9  C    0.052631
    10  C    0.031063
    11  C   -0.004093
    12  C    0.065664
    13  C    0.048763
    14  C    0.021341
    15  C   -0.018971
    16  C    0.015618
    17  C   -0.030666
    18  C    0.239420
    19  C   -0.001914
    20  C   -0.013971
    21  C    0.020547
    22  C   -0.008558
    23  C   -0.001674
    24  C   -0.028189
    25  C   -0.030435
    26  C   -0.025054
    27  C    0.255248
    28  C    0.257051
    29  C   -0.047704
    30  C   -0.022836
    31  C    0.009897
    32  C    0.024999
    33  C    0.017910
    34  C   -0.022288
    35  C    0.536058
    36  C    0.232643
    37  C   -0.051451
    38  C    0.206411
    39  C    0.234527
    40  C    0.249135
    41  C    0.135088
    42  C    0.269354
    43  C   -0.034195
    44  C   -0.035906
 Electronic spatial extent (au):  <R**2>=          35595.9887
 Charge=              0.0000 electrons
 Dipole moment (field-independent basis, Debye):
    X=              3.9640    Y=              0.4308    Z=             -0.4283  Tot=              4.0102
 Quadrupole moment (field-independent basis, Debye-Ang):
   XX=           -286.8543   YY=           -258.7352   ZZ=           -262.5214
   XY=              7.5785   XZ=             -9.1535   YZ=            -10.0326
 Traceless Quadrupole moment (field-independent basis, Debye-Ang):
   XX=            -17.4840   YY=             10.6351   ZZ=              6.8489
   XY=              7.5785   XZ=             -9.1535   YZ=            -10.0326
 Octapole moment (field-independent basis, Debye-Ang**2):
  XXX=            260.8434  YYY=           -130.8205  ZZZ=            -52.8943  XYY=            -52.9987
  XXY=            116.8317  XXZ=            -86.0307  XZZ=             12.3306  YZZ=            -17.7862
  YYZ=             17.5328  XYZ=              2.2457
 Hexadecapole moment (field-independent basis, Debye-Ang**3):
 XXXX=         -36429.4698 YYYY=          -8545.6351 ZZZZ=          -2683.3660 XXXY=             87.0641
 XXXZ=           -578.1082 YYYX=            328.9065 YYYZ=           -208.5488 ZZZX=           -261.7413
 ZZZY=            -37.1863 XXYY=          -7485.7993 XXZZ=          -6047.2256 YYZZ=          -1880.5004
 XXYZ=           -152.2088 YYXZ=            -86.7096 ZZXY=             97.5094
 N-N= 6.141955619222D+03 E-N=-1.696441439644D+04  KE= 1.992408486577D+03
 1|1|UNPC-DESKTOP-IT5MUM5|FOpt|RB3LYP|6-31G++(d,p)|C36H62O8|CHARDI|18-Jul
 -2024|0||# opt b3lyp/6-31g++(d,p)||Title||0,1|O,-0.3110485519,-1.9853545
 75,-2.3418424428|O,2.2608819421,0.3006069337,0.155808213|O,-7.59943173
 62,1.0202669711,-1.889713338|O,4.289836063,1.3560285528,0.3167551438|O
 ,1.2143329637,2.4958925309,-1.2832387233|O,2.6776154993,4.9598169662,-
 0.9404829403|O,5.5453240724,4.5942299189,-0.7976126032|O,7.0027914625,
 0.7957938909,0.5346041612|C,-2.4525176593,0.0345024438,0.8690787134|C,
 -1.2396896614,-0.9399570769,1.1944788135|C,-3.2463406422,-0.6063739085
 ,-0.3308856461|C,-4.6421630863,0.0287480033,-0.7134727917|C,-0.3131442
 593,-1.0989375698,-0.0641641669|C,-5.4880380043,0.1100877929,0.6040505
 215|C,-3.4193500547,0.148516981,2.073113377|C,1.034488208,-1.693007718
 7,0.4781324407|C,-2.3177065657,-0.8740347368,-1.5311389928|C,-1.115924
 8049,-1.7759833686,-1.1793644335|C,-0.2090853617,-0.4453777188,2.23106
 89069|C,-4.7385043007,0.8539608098,1.7245104931|C,-6.9938457098,0.5531
 684409,0.4488086606|C,1.0009374311,-1.3713999168,2.0150940872|C,-5.370
 1628764,-0.9720636181,-1.6860148991|C,-1.9168980285,1.4574875855,0.569
 7256462|C,-1.730938911,-2.3271109145,1.7107205666|C,-4.5143980703,1.38
 69009389,-1.4448750922|C,2.33583714,-1.1265009736,-0.1770616664|C,-7.6
 040861303,0.0005059245,-0.8808526121|C,-6.8516592184,-1.2433474894,-1.
 3524526872|C,-7.7946713041,-0.1018215948,1.6007045779|C,-7.2062031379,
 2.078254315,0.5438334667|C,3.6199853468,-1.7055703317,0.4736826411|C,2
 .3976492594,-1.3305497914,-1.6937241235|C,3.8311524398,-3.2300253318,0
 .3516440416|C,3.0809803875,1.2262153296,-0.4492134826|C,2.3585026454,2
 .580869064,-0.4516825997|C,5.0689016147,-3.6688744297,1.0899506339|C,3
 .3066086243,3.669523704,-0.9563232735|C,5.2361421372,2.2716116398,-0.2
 422913415|C,4.6375409457,3.6814830889,-0.2064701337|C,6.2145370185,-4.
 1598755103,0.5925619095|C,6.5116575724,2.1220103077,0.5795051842|C,6.4
 903191686,-4.3930728303,-0.8724288117|C,7.3580659281,-4.5270983838,1.5
 08239526|H,-3.543034583,-1.5977755952,0.0317980986|H,-0.0670038821,-0.
 0947570934,-0.4189133559|H,-5.5419955856,-0.934858528,0.9487490864|H,-
 3.6681516739,-0.8499169712,2.4504540989|H,-2.9203606791,0.6745851223,2
 .8968176764|H,1.0519869789,-2.7766300132,0.3198826169|H,-1.9134823296,
 0.0565398951,-1.9446175549|H,-2.8817407389,-1.3530105626,-2.3421644017
 |H,-1.4833316142,-2.7536792332,-0.8278977834|H,-0.5854436888,-0.474220
 8709,3.2596009113|H,0.099826075,0.579623366,2.0143394064|H,-5.35990027
 33,0.8941154624,2.6262790758|H,-4.5569367059,1.8965051073,1.4437817582
 |H,1.9148064635,-0.8822696134,2.3512545149|H,0.9004755243,-2.291589454
 ,2.5990531939|H,-5.2977998823,-0.5910037351,-2.7098906055|H,-4.8573775
 786,-1.9404463836,-1.6886177298|H,-1.2248124165,1.5084779942,-0.272419
 9829|H,-2.7264922904,2.1541449768,0.3626853246|H,-1.3896910098,1.85001
 2419,1.4435751651|H,-1.9853637343,-2.2713227144,2.7735281815|H,-0.9514
 092809,-3.0863541882,1.6118903903|H,-2.607151895,-2.7156970734,1.19086
 24956|H,-5.4560654938,1.639346115,-1.9322702621|H,-3.7411720054,1.3349
 273722,-2.218422132|H,-4.2529300288,2.2128155368,-0.7819441241|H,-8.65
 21995376,-0.2712472605,-0.6771180595|H,-7.3544515288,-1.672889809,-2.2
 301764358|H,-6.9303645787,-2.0066339755,-0.5688711539|H,-7.3741851297,
 0.1523322154,2.5781488355|H,-7.8011141527,-1.1948560028,1.5194545724|H
 ,-8.8353642918,0.2398836917,1.591047119|H,-6.6352821869,2.6296998664,-
 0.2028521378|H,-6.9244873603,2.4430664263,1.536083727|H,-8.262027102,2
 .3215194264,0.3883225365|H,-0.8894831438,-2.3453188959,-3.027455247|H,
 3.6464730189,-1.4248555207,1.5304310366|H,4.4754092988,-1.2031047989,0
 .0095013078|H,2.169256133,-2.3678767746,-1.9420625201|H,1.6615977976,-
 0.7162897561,-2.2107446589|H,3.3972445578,-1.1055570037,-2.0808719167|
 H,-7.9642675635,0.6295883137,-2.6945977642|H,2.9662223258,-3.754553405
 3,0.7800007945|H,3.8758794593,-3.5209797061,-0.7015757809|H,3.33827573
 84,0.9530959233,-1.4832820056|H,2.0767227324,2.7907224599,0.594829435|
 H,5.0122709719,-3.5430580897,2.1726975083|H,3.5140298243,3.4837356314,
 -2.0170554479|H,5.4537827775,2.0020294803,-1.2884725417|H,4.4490424002
 ,3.9427546466,0.8517112293|H,0.952361897,3.4082412676,-1.4771361407|H,
 7.2850411136,2.7746582548,0.1672917613|H,6.3067884085,2.4453994789,1.6
 134411115|H,2.4609200988,5.1658733082,-0.0181160009|H,7.3683677275,-3.
 818101333,-1.1940572183|H,5.6561615812,-4.1175162141,-1.5199650634|H,6
 .7268745246,-5.4489642001,-1.0587353265|H,7.1142803555,-4.3467141735,2
 .558769125|H,8.2598435545,-3.9500491468,1.2643145598|H,7.62844074,-5.5
 858748666,1.3983830598|H,5.0315686423,5.3862880936,-1.0151904492|H,6.2
 736434298,0.2308467666,0.8287491633||Version=IA32W-G09RevD.01|State=1-
 A|HF=-2010.9713399|RMSD=7.536e-009|RMSF=4.178e-006|Dipole=-1.5627353,-
 0.1216986,-0.1798625|Quadrupole=-12.6640329,9.1747698,3.4892631,7.2921
 43,5.954564,6.7387007|PG=C01 [X(C36H62O8)]||@


 NOTHING RESEMBLES A NEW PHENOMENON AS MUCH AS A MISTAKE.

                               -- ENRICO FERMI (?)
 Job cpu time:       1 days  6 hours 34 minutes 56.0 seconds.
 File lengths (MBytes):  RWF=    580 Int=      0 D2E=      0 Chk=     68 Scr=      1
 Normal termination of Gaussian 09 at Thu Jul 18 23:52:55 2024.
