
                                 *****************
                                 * O   R   C   A *
                                 *****************

                                            #,                                       
                                            ###                                      
                                            ####                                     
                                            #####                                    
                                            ######                                   
                                           ########,                                 
                                     ,,################,,,,,                         
                               ,,#################################,,                 
                          ,,##########################################,,             
                       ,#########################################, ''#####,          
                    ,#############################################,,   '####,        
                  ,##################################################,,,,####,       
                ,###########''''           ''''###############################       
              ,#####''   ,,,,##########,,,,          '''####'''          '####       
            ,##' ,,,,###########################,,,                        '##       
           ' ,,###''''                  '''############,,,                           
         ,,##''                                '''############,,,,        ,,,,,,###''
      ,#''                                            '''#######################'''  
     '                                                          ''''####''''         
             ,#######,   #######,   ,#######,      ##                                
            ,#'     '#,  ##    ##  ,#'     '#,    #''#        ######   ,####,        
            ##       ##  ##   ,#'  ##            #'  '#       #        #'  '#        
            ##       ##  #######   ##           ,######,      #####,   #    #        
            '#,     ,#'  ##    ##  '#,     ,#' ,#      #,         ##   #,  ,#        
             '#######'   ##     ##  '#######'  #'      '#     #####' # '####'        



                  #######################################################
                  #                        -***-                        #
                  #          Department of theory and spectroscopy      #
                  #    Directorship and core code : Frank Neese         #
                  #        Max Planck Institute fuer Kohlenforschung    #
                  #                Kaiser Wilhelm Platz 1               #
                  #                 D-45470 Muelheim/Ruhr               #
                  #                      Germany                        #
                  #                                                     #
                  #                  All rights reserved                #
                  #                        -***-                        #
                  #######################################################


                         Program Version 5.0.4 -  RELEASE  -


 With contributions from (in alphabetic order):
   Daniel Aravena         : Magnetic Suceptibility
   Michael Atanasov       : Ab Initio Ligand Field Theory (pilot matlab implementation)
   Alexander A. Auer      : GIAO ZORA, VPT2 properties, NMR spectrum
   Ute Becker             : Parallelization
   Giovanni Bistoni       : ED, misc. LED, open-shell LED, HFLD
   Martin Brehm           : Molecular dynamics
   Dmytro Bykov           : SCF Hessian
   Vijay G. Chilkuri      : MRCI spin determinant printing, contributions to CSF-ICE
   Dipayan Datta          : RHF DLPNO-CCSD density
   Achintya Kumar Dutta   : EOM-CC, STEOM-CC
   Dmitry Ganyushin       : Spin-Orbit,Spin-Spin,Magnetic field MRCI
   Miquel Garcia          : C-PCM and meta-GGA Hessian, CC/C-PCM, Gaussian charge scheme
   Yang Guo               : DLPNO-NEVPT2, F12-NEVPT2, CIM, IAO-localization
   Andreas Hansen         : Spin unrestricted coupled pair/coupled cluster methods
   Benjamin Helmich-Paris : MC-RPA, TRAH-SCF, COSX integrals
   Lee Huntington         : MR-EOM, pCC
   Robert Izsak           : Overlap fitted RIJCOSX, COSX-SCS-MP3, EOM
   Marcus Kettner         : VPT2
   Christian Kollmar      : KDIIS, OOCD, Brueckner-CCSD(T), CCSD density, CASPT2, CASPT2-K
   Simone Kossmann        : Meta GGA functionals, TD-DFT gradient, OOMP2, MP2 Hessian
   Martin Krupicka        : Initial AUTO-CI
   Lucas Lang             : DCDCAS
   Marvin Lechner         : AUTO-CI (C++ implementation), FIC-MRCC
   Dagmar Lenk            : GEPOL surface, SMD
   Dimitrios Liakos       : Extrapolation schemes; Compound Job, initial MDCI parallelization
   Dimitrios Manganas     : Further ROCIS development; embedding schemes
   Dimitrios Pantazis     : SARC Basis sets
   Anastasios Papadopoulos: AUTO-CI, single reference methods and gradients
   Taras Petrenko         : DFT Hessian,TD-DFT gradient, ASA, ECA, R-Raman, ABS, FL, XAS/XES, NRVS
   Peter Pinski           : DLPNO-MP2, DLPNO-MP2 Gradient
   Christoph Reimann      : Effective Core Potentials
   Marius Retegan         : Local ZFS, SOC
   Christoph Riplinger    : Optimizer, TS searches, QM/MM, DLPNO-CCSD(T), (RO)-DLPNO pert. Triples
   Tobias Risthaus        : Range-separated hybrids, TD-DFT gradient, RPA, STAB
   Michael Roemelt        : Original ROCIS implementation
   Masaaki Saitow         : Open-shell DLPNO-CCSD energy and density
   Barbara Sandhoefer     : DKH picture change effects
   Avijit Sen             : IP-ROCIS
   Kantharuban Sivalingam : CASSCF convergence, NEVPT2, FIC-MRCI
   Bernardo de Souza      : ESD, SOC TD-DFT
   Georgi Stoychev        : AutoAux, RI-MP2 NMR, DLPNO-MP2 response
   Willem Van den Heuvel  : Paramagnetic NMR
   Boris Wezisla          : Elementary symmetry handling
   Frank Wennmohs         : Technical directorship


 We gratefully acknowledge several colleagues who have allowed us to
 interface, adapt or use parts of their codes:
   Stefan Grimme, W. Hujo, H. Kruse, P. Pracht,  : VdW corrections, initial TS optimization,
                  C. Bannwarth, S. Ehlert          DFT functionals, gCP, sTDA/sTD-DF
   Ed Valeev, F. Pavosevic, A. Kumar             : LibInt (2-el integral package), F12 methods
   Garnet Chan, S. Sharma, J. Yang, R. Olivares  : DMRG
   Ulf Ekstrom                                   : XCFun DFT Library
   Mihaly Kallay                                 : mrcc  (arbitrary order and MRCC methods)
   Jiri Pittner, Ondrej Demel                    : Mk-CCSD
   Frank Weinhold                                : gennbo (NPA and NBO analysis)
   Christopher J. Cramer and Donald G. Truhlar   : smd solvation model
   Lars Goerigk                                  : TD-DFT with DH, B97 family of functionals
   V. Asgeirsson, H. Jonsson                     : NEB implementation
   FAccTs GmbH                                   : IRC, NEB, NEB-TS, DLPNO-Multilevel, CI-OPT
                                                   MM, QMMM, 2- and 3-layer-ONIOM, Crystal-QMMM,
                                                   LR-CPCM, SF, NACMEs, symmetry and pop. for TD-DFT,
                                                   nearIR, NL-DFT gradient (VV10), updates on ESD,
                                                   ML-optimized integration grids
   S Lehtola, MJT Oliveira, MAL Marques          : LibXC Library
   Liviu Ungur et al                             : ANISO software


 Your calculation uses the libint2 library for the computation of 2-el integrals
 For citations please refer to: http://libint.valeyev.net

 Your ORCA version has been built with support for libXC version: 5.1.0
 For citations please refer to: https://tddft.org/programs/libxc/

 This ORCA versions uses:
   CBLAS   interface :  Fast vector & matrix operations
   LAPACKE interface :  Fast linear algebra routines
   SCALAPACK package :  Parallel linear algebra routines
   Shared memory     :  Shared parallel matrices
   BLAS/LAPACK       :  OpenBLAS 0.3.15  USE64BITINT DYNAMIC_ARCH NO_AFFINITY Haswell SINGLE_THREADED
        Core in use  :  Haswell
   Copyright (c) 2011-2014, The OpenBLAS Project


================================================================================

----- Orbital basis set information -----
Your calculation utilizes the basis: def2-SVP
   F. Weigend and R. Ahlrichs, Phys. Chem. Chem. Phys. 7, 3297 (2005).

----- AuxJ basis set information -----
Your calculation utilizes the auxiliary basis: def2/J
   F. Weigend, Phys. Chem. Chem. Phys. 8, 1057 (2006).

================================================================================
                                        WARNINGS
                       Please study these warnings very carefully!
================================================================================


INFO   : the flag for use of the SHARK integral package has been found!

================================================================================
                                       INPUT FILE
================================================================================
NAME = cyclo1/cyclo1.inp
|  1> # avogadro generated ORCA input file 
|  2> # Basic Mode
|  3> # 
|  4> !B3LYP DEF2-SVP
|  5> 
|  6> %PAL NPROCS 3 END
|  7> 
|  8> * xyz 0 1
|  9> C        -21.92600      -27.11800      -10.21600
| 10> C        -22.20000      -27.91800       -8.93600
| 11> C        -23.71200      -28.17700       -8.84500
| 12> C        -24.48800      -26.83900       -8.87700
| 13> C        -23.99400      -25.98500      -10.09000
| 14> C        -24.53000      -24.54600      -10.07200
| 15> O        -21.48100      -29.12100       -8.95400
| 16> O        -24.00100      -28.87000       -7.66100
| 17> O        -25.86700      -27.14300       -9.05100
| 18> O        -22.57500      -25.86600      -10.10000
| 19> O        -25.93900      -24.50300      -10.14200
| 20> H        -20.83700      -26.89500      -10.26400
| 21> H        -21.86300      -27.29700       -8.07100
| 22> H        -24.03300      -28.77900       -9.73000
| 23> H        -24.24200      -26.28100       -7.94400
| 24> H        -24.34000      -26.45000      -11.04200
| 25> H        -24.17100      -24.04800       -9.14400
| 26> H        -24.09200      -24.04100      -10.96400
| 27> H        -21.37200      -29.41000       -8.01100
| 28> H        -23.91600      -29.83900       -7.86100
| 29> C        -26.38700      -23.15900      -10.24500
| 30> C        -20.79300      -29.84500      -14.62400
| 31> C        -20.85900      -30.62300      -13.29400
| 32> C        -21.83000      -29.91900      -12.34000
| 33> C        -21.38700      -28.45600      -12.14000
| 34> C        -21.27400      -27.79900      -13.54400
| 35> C        -20.80400      -26.33800      -13.50300
| 36> O        -21.28000      -31.94200      -13.52500
| 37> O        -21.86200      -30.58800      -11.10800
| 38> O        -22.39100      -27.80000      -11.38000
| 39> O        -20.36400      -28.51300      -14.37800
| 40> O        -21.74800      -25.53200      -12.82500
| 41> H        -20.00100      -30.33900      -15.23200
| 42> H        -19.83300      -30.62000      -12.85200
| 43> H        -22.85200      -29.90900      -12.79200
| 44> H        -20.38200      -28.46200      -11.65700
| 45> H        -22.28300      -27.78600      -14.00400
| 46> H        -19.81000      -26.28100      -13.01000
| 47> H        -20.71400      -26.02600      -14.57000
| 48> H        -20.89600      -32.50200      -12.80100
| 49> H        -22.55800      -31.29300      -11.17400
| 50> C        -21.52200      -24.15300      -13.06400
| 51> C        -23.63900      -31.57200      -18.67800
| 52> C        -22.41300      -32.30900      -18.12200
| 53> C        -22.16800      -31.84400      -16.67500
| 54> C        -22.02500      -30.30100      -16.62600
| 55> C        -23.21800      -29.64600      -17.39100
| 56> C        -23.05600      -28.12700      -17.55000
| 57> O        -22.62200      -33.69500      -18.17400
| 58> O        -21.00600      -32.45300      -16.17800
| 59> O        -22.06000      -29.85400      -15.27500
| 60> O        -23.34300      -30.18600      -18.70300
| 61> O        -22.98900      -27.49800      -16.28400
| 62> H        -23.78100      -31.88500      -19.73600
| 63> H        -21.54000      -32.03700      -18.76400
| 64> H        -23.04800      -32.12200      -16.04600
| 65> H        -21.09600      -29.99400      -17.16200
| 66> H        -24.16400      -29.80000      -16.82300
| 67> H        -22.12300      -27.90300      -18.11100
| 68> H        -23.90300      -27.77100      -18.18000
| 69> H        -21.72800      -34.12400      -18.22400
| 70> H        -21.26500      -33.35600      -15.85800
| 71> C        -23.88600      -26.41000      -16.16100
| 72> C        -28.51300      -33.54100      -18.00400
| 73> C        -27.35200      -34.53700      -17.86600
| 74> C        -26.09700      -33.75600      -17.44000
| 75> C        -25.79900      -32.62600      -18.45100
| 76> C        -27.09200      -31.78200      -18.66900
| 77> C        -26.95700      -30.72100      -19.77200
| 78> O        -27.67400      -35.52500      -16.92500
| 79> O        -24.99700      -34.62200      -17.35100
| 80> O        -24.79200      -31.80800      -17.87700
| 81> O        -28.18500      -32.62100      -19.03300
| 82> O        -25.97700      -29.76200      -19.43600
| 83> H        -29.41700      -34.09200      -18.34500
| 84> H        -27.19200      -35.01000      -18.86500
| 85> H        -26.28700      -33.28000      -16.44600
| 86> H        -25.51500      -33.10500      -19.41700
| 87> H        -27.33500      -31.22000      -17.73800
| 88> H        -26.70400      -31.22100      -20.73300
| 89> H        -27.96000      -30.23700      -19.84900
| 90> H        -27.10800      -36.31400      -17.12700
| 91> H        -24.99100      -34.99500      -16.43000
| 92> C        -26.02500      -28.64800      -20.31300
| 93> C        -31.47600      -32.49000      -13.72900
| 94> C        -30.52800      -33.70100      -13.63500
| 95> C        -29.34700      -33.48400      -14.58600
| 96> C        -29.85600      -33.24800      -16.02200
| 97> C        -30.90400      -32.10000      -15.98400
| 98> C        -31.55600      -31.81000      -17.34500
| 99> O        -30.06800      -33.85100      -12.31800
|100> O        -28.49100      -34.59600      -14.55600
|101> O        -28.73900      -32.83500      -16.78800
|102> O        -31.95400      -32.37200      -15.06100
|103> O        -30.58900      -31.38600      -18.28300
|104> H        -32.35100      -32.73100      -13.08400
|105> H        -31.10400      -34.60700      -13.94500
|106> H        -28.79000      -32.56800      -14.26800
|107> H        -30.34300      -34.18500      -16.38000
|108> H        -30.38000      -31.17500      -15.69000
|109> H        -32.07800      -32.72200      -17.71000
|110> H        -32.29800      -30.99900      -17.15300
|111> H        -29.84500      -34.81000      -12.19400
|112> H        -27.83100      -34.44000      -13.83200
|113> C        -31.19000      -30.79000      -19.42100
|114> C        -31.21400      -28.63300      -10.16700
|115> C        -31.71500      -30.05400       -9.86700
|116> C        -31.14600      -31.02300      -10.92000
|117> C        -31.51400      -30.53600      -12.34500
|118> C        -31.10400      -29.03800      -12.48200
|119> C        -31.54900      -28.41400      -13.82100
|120> O        -31.32900      -30.43500       -8.57400
|121> O        -31.66200      -32.31000      -10.70000
|122> O        -30.80900      -31.29600      -13.31800
|123> O        -31.69400      -28.25700      -11.44900
|124> O        -30.91800      -28.98800      -14.94700
|125> H        -31.69100      -27.94000       -9.43900
|126> H        -32.83000      -30.03300       -9.93600
|127> H        -30.03200      -31.03700      -10.84400
|128> H        -32.62000      -30.58000      -12.48700
|129> H        -29.99800      -28.93800      -12.43700
|130> H        -32.64700      -28.54100      -13.93100
|131> H        -31.39400      -27.31400      -13.81400
|132> H        -31.98500      -31.11100       -8.26000
|133> H        -31.09500      -32.73500      -10.00400
|134> C        -29.55700      -28.59400      -15.04500
|135> C        -26.74900      -26.73300       -8.00800
|136> C        -27.40200      -27.94500       -7.31800
|137> C        -28.18500      -28.74900       -8.36800
|138> C        -29.22400      -27.83900       -9.05400
|139> C        -28.50100      -26.56300       -9.58300
|140> C        -29.47900      -25.53300      -10.16400
|141> O        -26.42700      -28.74400       -6.70800
|142> O        -28.83200      -29.83600       -7.76100
|143> O        -29.78700      -28.56700      -10.13600
|144> O        -27.78200      -25.91400       -8.53600
|145> O        -30.09300      -26.02800      -11.33300
|146> H        -26.23700      -26.14000       -7.21900
|147> H        -28.10100      -27.55200       -6.54100
|148> H        -27.47900      -29.11700       -9.15300
|149> H        -29.96000      -27.53500       -8.27300
|150> H        -27.80100      -26.83000      -10.40800
|151> H        -30.23800      -25.27700       -9.39100
|152> H        -28.88600      -24.62900      -10.41700
|153> H        -26.87500      -29.24400       -5.97600
|154> H        -28.19000      -30.59400       -7.75700
|155> C        -30.87800      -25.02300      -11.95500
|156> H        -31.85600      -25.47700      -12.21800
|157> C        -30.18600      -24.52100      -13.23000
|158> H        -31.11800      -24.16100      -11.28600
|159> H        -30.01000      -25.39700      -13.89400
|160> O        -28.96400      -23.91900      -12.89700
|161> C        -31.07100      -23.51200      -13.96400
|162> H        -32.03900      -23.98000      -14.24300
|163> H        -30.56500      -23.17300      -14.89300
|164> H        -31.26800      -22.62700      -13.32100
|165> H        -28.39300      -23.95200      -13.70900
|166> H        -27.14800      -23.12000      -11.05100
|167> H        -25.59400      -22.43600      -10.55800
|168> C        -27.01300      -22.68500       -8.92400
|169> H        -27.86500      -23.34600       -8.64700
|170> C        -27.58200      -21.27400       -9.07300
|171> O        -26.05100      -22.67800       -7.90300
|172> H        -28.36400      -21.25500       -9.86200
|173> H        -26.77700      -20.55600       -9.34200
|174> H        -28.04100      -20.95000       -8.11500
|175> H        -26.04800      -23.58600       -7.50100
|176> H        -22.50800      -23.69000      -13.28000
|177> H        -20.88900      -23.94200      -13.95900
|178> C        -20.90600      -23.47900      -11.83000
|179> H        -21.57800      -23.61700      -10.95200
|180> C        -20.76600      -21.97300      -12.04800
|181> O        -19.63600      -24.01700      -11.56700
|182> H        -21.76000      -21.51700      -12.24000
|183> H        -20.09900      -21.76500      -12.91200
|184> H        -20.33100      -21.50000      -11.14200
|185> H        -19.76500      -24.77500      -10.94000
|186> H        -24.10300      -26.29400      -15.07700
|187> H        -24.87500      -26.60800      -16.63300
|188> C        -23.25400      -25.10600      -16.67200
|189> H        -22.29800      -24.95200      -16.12000
|190> C        -24.18000      -23.91800      -16.40700
|191> O        -23.00600      -25.20900      -18.05000
|192> H        -24.37700      -23.81800      -15.31800
|193> H        -25.14600      -24.05200      -16.94000
|194> H        -23.70200      -22.98100      -16.76400
|195> H        -22.29000      -24.55500      -18.26400
|196> H        -25.97000      -27.73100      -19.69000
|197> H        -26.97700      -28.56300      -20.89000
|198> C        -24.83600      -28.66500      -21.28500
|199> H        -23.88100      -28.66600      -20.71100
|200> C        -24.83000      -27.40700      -22.15300
|201> O        -24.90900      -29.78900      -22.12200
|202> H        -24.75400      -26.49900      -21.51600
|203> H        -25.76000      -27.34700      -22.75800
|204> H        -23.95800      -27.42800      -22.84000
|205> H        -24.41800      -30.52200      -21.66800
|206> H        -30.68500      -29.81500      -19.59100
|207> H        -32.27600      -30.55900      -19.29900
|208> C        -31.00300      -31.68300      -20.65500
|209> H        -29.91700      -31.86100      -20.82900
|210> C        -31.54800      -30.99800      -21.90700
|211> O        -31.67900      -32.90000      -20.47600
|212> H        -31.01800      -30.03800      -22.08300
|213> H        -32.63600      -30.79600      -21.79900
|214> H        -31.39400      -31.65200      -22.79100
|215> H        -31.04600      -33.52300      -20.03500
|216> H        -28.92300      -29.37800      -14.57500
|217> H        -29.33900      -27.62100      -14.54700
|218> C        -29.17300      -28.45200      -16.52000
|219> H        -29.34900      -29.43100      -17.02000
|220> C        -27.69600      -28.08000      -16.66400
|221> O        -29.97200      -27.45900      -17.10900
|222> H        -27.05300      -28.86600      -16.21300
|223> H        -27.48700      -27.10900      -16.16700
|224> H        -27.43700      -27.99100      -17.73900
|225> H        -29.96800      -27.62900      -18.08800
|226> *
|227> 
|228> 
|229> 
|230>                          ****END OF INPUT****
================================================================================

                       ****************************
                       * Single Point Calculation *
                       ****************************

---------------------------------
CARTESIAN COORDINATES (ANGSTROEM)
---------------------------------
  C    -21.926000  -27.118000  -10.216000
  C    -22.200000  -27.918000   -8.936000
  C    -23.712000  -28.177000   -8.845000
  C    -24.488000  -26.839000   -8.877000
  C    -23.994000  -25.985000  -10.090000
  C    -24.530000  -24.546000  -10.072000
  O    -21.481000  -29.121000   -8.954000
  O    -24.001000  -28.870000   -7.661000
  O    -25.867000  -27.143000   -9.051000
  O    -22.575000  -25.866000  -10.100000
  O    -25.939000  -24.503000  -10.142000
  H    -20.837000  -26.895000  -10.264000
  H    -21.863000  -27.297000   -8.071000
  H    -24.033000  -28.779000   -9.730000
  H    -24.242000  -26.281000   -7.944000
  H    -24.340000  -26.450000  -11.042000
  H    -24.171000  -24.048000   -9.144000
  H    -24.092000  -24.041000  -10.964000
  H    -21.372000  -29.410000   -8.011000
  H    -23.916000  -29.839000   -7.861000
  C    -26.387000  -23.159000  -10.245000
  C    -20.793000  -29.845000  -14.624000
  C    -20.859000  -30.623000  -13.294000
  C    -21.830000  -29.919000  -12.340000
  C    -21.387000  -28.456000  -12.140000
  C    -21.274000  -27.799000  -13.544000
  C    -20.804000  -26.338000  -13.503000
  O    -21.280000  -31.942000  -13.525000
  O    -21.862000  -30.588000  -11.108000
  O    -22.391000  -27.800000  -11.380000
  O    -20.364000  -28.513000  -14.378000
  O    -21.748000  -25.532000  -12.825000
  H    -20.001000  -30.339000  -15.232000
  H    -19.833000  -30.620000  -12.852000
  H    -22.852000  -29.909000  -12.792000
  H    -20.382000  -28.462000  -11.657000
  H    -22.283000  -27.786000  -14.004000
  H    -19.810000  -26.281000  -13.010000
  H    -20.714000  -26.026000  -14.570000
  H    -20.896000  -32.502000  -12.801000
  H    -22.558000  -31.293000  -11.174000
  C    -21.522000  -24.153000  -13.064000
  C    -23.639000  -31.572000  -18.678000
  C    -22.413000  -32.309000  -18.122000
  C    -22.168000  -31.844000  -16.675000
  C    -22.025000  -30.301000  -16.626000
  C    -23.218000  -29.646000  -17.391000
  C    -23.056000  -28.127000  -17.550000
  O    -22.622000  -33.695000  -18.174000
  O    -21.006000  -32.453000  -16.178000
  O    -22.060000  -29.854000  -15.275000
  O    -23.343000  -30.186000  -18.703000
  O    -22.989000  -27.498000  -16.284000
  H    -23.781000  -31.885000  -19.736000
  H    -21.540000  -32.037000  -18.764000
  H    -23.048000  -32.122000  -16.046000
  H    -21.096000  -29.994000  -17.162000
  H    -24.164000  -29.800000  -16.823000
  H    -22.123000  -27.903000  -18.111000
  H    -23.903000  -27.771000  -18.180000
  H    -21.728000  -34.124000  -18.224000
  H    -21.265000  -33.356000  -15.858000
  C    -23.886000  -26.410000  -16.161000
  C    -28.513000  -33.541000  -18.004000
  C    -27.352000  -34.537000  -17.866000
  C    -26.097000  -33.756000  -17.440000
  C    -25.799000  -32.626000  -18.451000
  C    -27.092000  -31.782000  -18.669000
  C    -26.957000  -30.721000  -19.772000
  O    -27.674000  -35.525000  -16.925000
  O    -24.997000  -34.622000  -17.351000
  O    -24.792000  -31.808000  -17.877000
  O    -28.185000  -32.621000  -19.033000
  O    -25.977000  -29.762000  -19.436000
  H    -29.417000  -34.092000  -18.345000
  H    -27.192000  -35.010000  -18.865000
  H    -26.287000  -33.280000  -16.446000
  H    -25.515000  -33.105000  -19.417000
  H    -27.335000  -31.220000  -17.738000
  H    -26.704000  -31.221000  -20.733000
  H    -27.960000  -30.237000  -19.849000
  H    -27.108000  -36.314000  -17.127000
  H    -24.991000  -34.995000  -16.430000
  C    -26.025000  -28.648000  -20.313000
  C    -31.476000  -32.490000  -13.729000
  C    -30.528000  -33.701000  -13.635000
  C    -29.347000  -33.484000  -14.586000
  C    -29.856000  -33.248000  -16.022000
  C    -30.904000  -32.100000  -15.984000
  C    -31.556000  -31.810000  -17.345000
  O    -30.068000  -33.851000  -12.318000
  O    -28.491000  -34.596000  -14.556000
  O    -28.739000  -32.835000  -16.788000
  O    -31.954000  -32.372000  -15.061000
  O    -30.589000  -31.386000  -18.283000
  H    -32.351000  -32.731000  -13.084000
  H    -31.104000  -34.607000  -13.945000
  H    -28.790000  -32.568000  -14.268000
  H    -30.343000  -34.185000  -16.380000
  H    -30.380000  -31.175000  -15.690000
  H    -32.078000  -32.722000  -17.710000
  H    -32.298000  -30.999000  -17.153000
  H    -29.845000  -34.810000  -12.194000
  H    -27.831000  -34.440000  -13.832000
  C    -31.190000  -30.790000  -19.421000
  C    -31.214000  -28.633000  -10.167000
  C    -31.715000  -30.054000   -9.867000
  C    -31.146000  -31.023000  -10.920000
  C    -31.514000  -30.536000  -12.345000
  C    -31.104000  -29.038000  -12.482000
  C    -31.549000  -28.414000  -13.821000
  O    -31.329000  -30.435000   -8.574000
  O    -31.662000  -32.310000  -10.700000
  O    -30.809000  -31.296000  -13.318000
  O    -31.694000  -28.257000  -11.449000
  O    -30.918000  -28.988000  -14.947000
  H    -31.691000  -27.940000   -9.439000
  H    -32.830000  -30.033000   -9.936000
  H    -30.032000  -31.037000  -10.844000
  H    -32.620000  -30.580000  -12.487000
  H    -29.998000  -28.938000  -12.437000
  H    -32.647000  -28.541000  -13.931000
  H    -31.394000  -27.314000  -13.814000
  H    -31.985000  -31.111000   -8.260000
  H    -31.095000  -32.735000  -10.004000
  C    -29.557000  -28.594000  -15.045000
  C    -26.749000  -26.733000   -8.008000
  C    -27.402000  -27.945000   -7.318000
  C    -28.185000  -28.749000   -8.368000
  C    -29.224000  -27.839000   -9.054000
  C    -28.501000  -26.563000   -9.583000
  C    -29.479000  -25.533000  -10.164000
  O    -26.427000  -28.744000   -6.708000
  O    -28.832000  -29.836000   -7.761000
  O    -29.787000  -28.567000  -10.136000
  O    -27.782000  -25.914000   -8.536000
  O    -30.093000  -26.028000  -11.333000
  H    -26.237000  -26.140000   -7.219000
  H    -28.101000  -27.552000   -6.541000
  H    -27.479000  -29.117000   -9.153000
  H    -29.960000  -27.535000   -8.273000
  H    -27.801000  -26.830000  -10.408000
  H    -30.238000  -25.277000   -9.391000
  H    -28.886000  -24.629000  -10.417000
  H    -26.875000  -29.244000   -5.976000
  H    -28.190000  -30.594000   -7.757000
  C    -30.878000  -25.023000  -11.955000
  H    -31.856000  -25.477000  -12.218000
  C    -30.186000  -24.521000  -13.230000
  H    -31.118000  -24.161000  -11.286000
  H    -30.010000  -25.397000  -13.894000
  O    -28.964000  -23.919000  -12.897000
  C    -31.071000  -23.512000  -13.964000
  H    -32.039000  -23.980000  -14.243000
  H    -30.565000  -23.173000  -14.893000
  H    -31.268000  -22.627000  -13.321000
  H    -28.393000  -23.952000  -13.709000
  H    -27.148000  -23.120000  -11.051000
  H    -25.594000  -22.436000  -10.558000
  C    -27.013000  -22.685000   -8.924000
  H    -27.865000  -23.346000   -8.647000
  C    -27.582000  -21.274000   -9.073000
  O    -26.051000  -22.678000   -7.903000
  H    -28.364000  -21.255000   -9.862000
  H    -26.777000  -20.556000   -9.342000
  H    -28.041000  -20.950000   -8.115000
  H    -26.048000  -23.586000   -7.501000
  H    -22.508000  -23.690000  -13.280000
  H    -20.889000  -23.942000  -13.959000
  C    -20.906000  -23.479000  -11.830000
  H    -21.578000  -23.617000  -10.952000
  C    -20.766000  -21.973000  -12.048000
  O    -19.636000  -24.017000  -11.567000
  H    -21.760000  -21.517000  -12.240000
  H    -20.099000  -21.765000  -12.912000
  H    -20.331000  -21.500000  -11.142000
  H    -19.765000  -24.775000  -10.940000
  H    -24.103000  -26.294000  -15.077000
  H    -24.875000  -26.608000  -16.633000
  C    -23.254000  -25.106000  -16.672000
  H    -22.298000  -24.952000  -16.120000
  C    -24.180000  -23.918000  -16.407000
  O    -23.006000  -25.209000  -18.050000
  H    -24.377000  -23.818000  -15.318000
  H    -25.146000  -24.052000  -16.940000
  H    -23.702000  -22.981000  -16.764000
  H    -22.290000  -24.555000  -18.264000
  H    -25.970000  -27.731000  -19.690000
  H    -26.977000  -28.563000  -20.890000
  C    -24.836000  -28.665000  -21.285000
  H    -23.881000  -28.666000  -20.711000
  C    -24.830000  -27.407000  -22.153000
  O    -24.909000  -29.789000  -22.122000
  H    -24.754000  -26.499000  -21.516000
  H    -25.760000  -27.347000  -22.758000
  H    -23.958000  -27.428000  -22.840000
  H    -24.418000  -30.522000  -21.668000
  H    -30.685000  -29.815000  -19.591000
  H    -32.276000  -30.559000  -19.299000
  C    -31.003000  -31.683000  -20.655000
  H    -29.917000  -31.861000  -20.829000
  C    -31.548000  -30.998000  -21.907000
  O    -31.679000  -32.900000  -20.476000
  H    -31.018000  -30.038000  -22.083000
  H    -32.636000  -30.796000  -21.799000
  H    -31.394000  -31.652000  -22.791000
  H    -31.046000  -33.523000  -20.035000
  H    -28.923000  -29.378000  -14.575000
  H    -29.339000  -27.621000  -14.547000
  C    -29.173000  -28.452000  -16.520000
  H    -29.349000  -29.431000  -17.020000
  C    -27.696000  -28.080000  -16.664000
  O    -29.972000  -27.459000  -17.109000
  H    -27.053000  -28.866000  -16.213000
  H    -27.487000  -27.109000  -16.167000
  H    -27.437000  -27.991000  -17.739000
  H    -29.968000  -27.629000  -18.088000

----------------------------
CARTESIAN COORDINATES (A.U.)
----------------------------
  NO LB      ZA    FRAG     MASS         X           Y           Z
   0 C     6.0000    0    12.011  -41.434135  -51.245593  -19.305442
   1 C     6.0000    0    12.011  -41.951920  -52.757374  -16.886593
   2 C     6.0000    0    12.011  -44.809186  -53.246813  -16.714628
   3 C     6.0000    0    12.011  -46.275614  -50.718360  -16.775099
   4 C     6.0000    0    12.011  -45.342089  -49.104534  -19.067337
   5 C     6.0000    0    12.011  -46.354982  -46.385218  -19.033322
   6 O     8.0000    0    15.999  -40.593207  -55.030715  -16.920608
   7 O     8.0000    0    15.999  -45.355317  -54.556393  -14.477192
   8 O     8.0000    0    15.999  -48.881546  -51.292836  -17.103911
   9 O     8.0000    0    15.999  -42.660567  -48.879656  -19.086234
  10 O     8.0000    0    15.999  -49.017606  -46.303959  -19.165602
  11 H     1.0000    0     1.008  -39.376223  -50.824184  -19.396149
  12 H     1.0000    0     1.008  -41.315082  -51.583854  -15.251980
  13 H     1.0000    0     1.008  -45.415788  -54.384428  -18.387035
  14 H     1.0000    0     1.008  -45.810741  -49.663893  -15.011984
  15 H     1.0000    0     1.008  -45.995934  -49.983256  -20.866356
  16 H     1.0000    0     1.008  -45.676570  -45.444134  -17.279656
  17 H     1.0000    0     1.008  -45.527282  -45.430906  -20.718957
  18 H     1.0000    0     1.008  -40.387227  -55.576846  -15.138596
  19 H     1.0000    0     1.008  -45.194690  -56.387538  -14.855137
  20 C     6.0000    0    12.011  -49.864203  -43.764168  -19.360244
  21 C     6.0000    0    12.011  -39.293076  -56.398876  -27.635355
  22 C     6.0000    0    12.011  -39.417797  -57.869083  -25.122019
  23 C     6.0000    0    12.011  -41.252722  -56.538716  -23.319220
  24 C     6.0000    0    12.011  -40.415573  -53.774047  -22.941275
  25 C     6.0000    0    12.011  -40.202034  -52.532497  -25.594451
  26 C     6.0000    0    12.011  -39.313862  -49.771607  -25.516972
  27 O     8.0000    0    15.999  -40.213372  -60.361632  -25.558546
  28 O     8.0000    0    15.999  -41.313193  -57.802943  -20.991078
  29 O     8.0000    0    15.999  -42.312858  -52.534387  -21.505083
  30 O     8.0000    0    15.999  -38.482383  -53.881761  -27.170482
  31 O     8.0000    0    15.999  -41.097764  -48.248488  -24.235738
  32 H     1.0000    0     1.008  -37.796412  -57.332401  -28.784308
  33 H     1.0000    0     1.008  -37.478938  -57.863414  -24.286760
  34 H     1.0000    0     1.008  -43.184022  -56.519819  -24.173377
  35 H     1.0000    0     1.008  -38.516398  -53.785385  -22.028538
  36 H     1.0000    0     1.008  -42.108767  -52.507930  -26.463725
  37 H     1.0000    0     1.008  -37.435475  -49.663893  -24.585337
  38 H     1.0000    0     1.008  -39.143787  -49.182012  -27.533310
  39 H     1.0000    0     1.008  -39.487717  -61.419879  -24.190384
  40 H     1.0000    0     1.008  -42.628442  -59.135200  -21.115800
  41 C     6.0000    0    12.011  -40.670686  -45.642555  -24.687382
  42 C     6.0000    0    12.011  -44.671236  -59.662434  -35.296305
  43 C     6.0000    0    12.011  -42.354432  -61.055162  -34.245617
  44 C     6.0000    0    12.011  -41.891449  -60.176439  -31.511183
  45 C     6.0000    0    12.011  -41.621218  -57.260592  -31.418587
  46 C     6.0000    0    12.011  -43.875661  -56.022821  -32.864227
  47 C     6.0000    0    12.011  -43.569526  -53.152327  -33.164694
  48 O     8.0000    0    15.999  -42.749385  -63.674322  -34.343883
  49 O     8.0000    0    15.999  -39.695587  -61.327282  -30.571989
  50 O     8.0000    0    15.999  -41.687359  -56.415884  -28.865567
  51 O     8.0000    0    15.999  -44.111877  -57.043273  -35.343548
  52 O     8.0000    0    15.999  -43.442914  -51.963689  -30.772300
  53 H     1.0000    0     1.008  -44.939577  -60.253918  -37.295635
  54 H     1.0000    0     1.008  -40.704701  -60.541156  -35.458821
  55 H     1.0000    0     1.008  -43.554408  -60.701783  -30.322546
  56 H     1.0000    0     1.008  -39.865663  -56.680446  -32.431480
  57 H     1.0000    0     1.008  -45.663342  -56.313839  -31.790863
  58 H     1.0000    0     1.008  -41.806411  -52.729028  -34.224830
  59 H     1.0000    0     1.008  -45.170124  -52.479584  -34.355221
  60 H     1.0000    0     1.008  -41.059969  -64.485015  -34.438369
  61 H     1.0000    0     1.008  -40.185026  -63.033705  -29.967277
  62 C     6.0000    0    12.011  -45.137998  -49.907667  -30.539864
  63 C     6.0000    0    12.011  -53.881761  -63.383304  -34.022629
  64 C     6.0000    0    12.011  -51.687789  -65.265471  -33.761847
  65 C     6.0000    0    12.011  -49.316183  -63.789595  -32.956824
  66 C     6.0000    0    12.011  -48.753045  -61.654205  -34.867337
  67 C     6.0000    0    12.011  -51.196460  -60.059276  -35.279297
  68 C     6.0000    0    12.011  -50.941347  -58.054277  -37.363665
  69 O     8.0000    0    15.999  -52.296281  -67.132521  -31.983615
  70 O     8.0000    0    15.999  -47.237484  -65.426098  -32.788638
  71 O     8.0000    0    15.999  -46.850090  -60.108409  -33.782634
  72 O     8.0000    0    15.999  -53.261931  -61.644756  -35.967158
  73 O     8.0000    0    15.999  -49.089416  -56.242029  -36.728717
  74 H     1.0000    0     1.008  -55.590074  -64.424543  -34.667026
  75 H     1.0000    0     1.008  -51.385433  -66.159312  -35.649684
  76 H     1.0000    0     1.008  -49.675231  -62.890086  -31.078436
  77 H     1.0000    0     1.008  -48.216362  -62.559384  -36.692812
  78 H     1.0000    0     1.008  -51.655664  -58.997250  -33.519962
  79 H     1.0000    0     1.008  -50.463247  -58.999140  -39.179692
  80 H     1.0000    0     1.008  -52.836743  -57.139649  -37.509174
  81 H     1.0000    0     1.008  -51.226696  -68.623515  -32.365339
  82 H     1.0000    0     1.008  -47.226146  -66.130966  -31.048200
  83 C     6.0000    0    12.011  -49.180123  -54.136874  -38.386007
  84 C     6.0000    0    12.011  -59.481020  -61.397202  -25.944050
  85 C     6.0000    0    12.011  -57.689559  -63.685660  -25.766416
  86 C     6.0000    0    12.011  -55.457793  -63.275590  -27.563545
  87 C     6.0000    0    12.011  -56.419663  -62.829615  -30.277192
  88 C     6.0000    0    12.011  -58.400096  -60.660209  -30.205383
  89 C     6.0000    0    12.011  -59.632198  -60.112188  -32.777300
  90 O     8.0000    0    15.999  -56.820285  -63.969119  -23.277647
  91 O     8.0000    0    15.999  -53.840187  -65.376965  -27.506854
  92 O     8.0000    0    15.999  -54.308839  -62.049158  -31.724722
  93 O     8.0000    0    15.999  -60.384309  -61.174214  -28.461165
  94 O     8.0000    0    15.999  -57.804833  -59.310944  -34.549863
  95 H     1.0000    0     1.008  -61.134530  -61.852626  -24.725177
  96 H     1.0000    0     1.008  -58.778042  -65.397752  -26.352231
  97 H     1.0000    0     1.008  -54.405215  -61.544601  -26.962612
  98 H     1.0000    0     1.008  -57.339960  -64.600288  -30.953714
  99 H     1.0000    0     1.008  -57.409880  -58.912212  -29.649803
 100 H     1.0000    0     1.008  -60.618635  -61.835619  -33.467050
 101 H     1.0000    0     1.008  -61.034375  -58.579620  -32.414472
 102 H     1.0000    0     1.008  -56.398876  -65.781367  -23.043320
 103 H     1.0000    0     1.008  -52.592968  -65.082168  -26.138692
 104 C     6.0000    0    12.011  -58.940558  -58.184668  -36.700371
 105 C     6.0000    0    12.011  -58.985912  -54.108528  -19.212846
 106 C     6.0000    0    12.011  -59.932664  -56.793829  -18.645928
 107 C     6.0000    0    12.011  -58.857410  -58.624974  -20.635809
 108 C     6.0000    0    12.011  -59.552829  -57.704677  -23.328669
 109 C     6.0000    0    12.011  -58.778042  -54.873867  -23.587562
 110 C     6.0000    0    12.011  -59.618970  -53.694678  -26.117905
 111 O     8.0000    0    15.999  -59.203230  -57.513815  -16.202512
 112 O     8.0000    0    15.999  -59.832509  -61.057051  -20.220070
 113 O     8.0000    0    15.999  -58.220572  -59.140869  -25.167373
 114 O     8.0000    0    15.999  -59.892980  -53.397991  -21.635475
 115 O     8.0000    0    15.999  -58.426553  -54.779381  -28.245737
 116 H     1.0000    0     1.008  -59.887311  -52.798948  -17.837125
 117 H     1.0000    0     1.008  -62.039709  -56.754145  -18.776319
 118 H     1.0000    0     1.008  -56.752255  -58.651430  -20.492190
 119 H     1.0000    0     1.008  -61.642866  -57.787825  -23.597010
 120 H     1.0000    0     1.008  -56.688005  -54.684895  -23.502524
 121 H     1.0000    0     1.008  -61.693889  -53.934674  -26.325775
 122 H     1.0000    0     1.008  -59.326062  -51.615980  -26.104677
 123 H     1.0000    0     1.008  -60.442890  -58.791270  -15.609138
 124 H     1.0000    0     1.008  -58.761034  -61.860185  -18.904820
 125 C     6.0000    0    12.011  -55.854635  -54.034829  -28.430930
 126 C     6.0000    0    12.011  -50.548284  -50.518049  -15.132927
 127 C     6.0000    0    12.011  -51.782276  -52.808397  -13.829016
 128 C     6.0000    0    12.011  -53.261931  -54.327737  -15.813228
 129 C     6.0000    0    12.011  -55.225357  -52.608086  -17.109580
 130 C     6.0000    0    12.011  -53.859085  -50.196795  -18.109246
 131 C     6.0000    0    12.011  -55.707237  -48.250377  -19.207176
 132 O     8.0000    0    15.999  -49.939793  -54.318288  -12.676283
 133 O     8.0000    0    15.999  -54.484584  -56.381869  -14.666165
 134 O     8.0000    0    15.999  -56.289272  -53.983806  -19.154264
 135 O     8.0000    0    15.999  -52.500371  -48.970363  -16.130702
 136 O     8.0000    0    15.999  -56.867529  -49.185792  -21.416266
 137 H     1.0000    0     1.008  -49.580745  -49.397441  -13.641933
 138 H     1.0000    0     1.008  -53.103194  -52.065734  -12.360699
 139 H     1.0000    0     1.008  -51.927784  -55.023156  -17.296663
 140 H     1.0000    0     1.008  -56.616195  -52.033609  -15.633704
 141 H     1.0000    0     1.008  -52.536276  -50.701352  -19.668270
 142 H     1.0000    0     1.008  -57.141539  -47.766607  -17.746418
 143 H     1.0000    0     1.008  -54.586629  -46.542065  -19.685277
 144 H     1.0000    0     1.008  -50.786390  -55.263151  -11.293003
 145 H     1.0000    0     1.008  -53.271380  -57.814281  -14.658606
 146 C     6.0000    0    12.011  -58.350964  -47.286617  -22.591676
 147 H     1.0000    0     1.008  -60.199116  -48.144553  -23.088674
 148 C     6.0000    0    12.011  -57.043273  -46.337975  -25.001077
 149 H     1.0000    0     1.008  -58.804498  -45.657673  -21.327449
 150 H     1.0000    0     1.008  -56.710681  -47.993375  -26.255855
 151 O     8.0000    0    15.999  -54.734028  -45.200359  -24.371798
 152 C     6.0000    0    12.011  -58.715681  -44.431241  -26.388136
 153 H     1.0000    0     1.008  -60.544936  -45.315633  -26.915369
 154 H     1.0000    0     1.008  -57.759479  -43.790624  -28.143691
 155 H     1.0000    0     1.008  -59.087957  -42.758833  -25.173042
 156 H     1.0000    0     1.008  -53.654994  -45.262720  -25.906256
 157 H     1.0000    0     1.008  -51.302285  -43.690468  -20.883364
 158 H     1.0000    0     1.008  -48.365651  -42.397896  -19.951729
 159 C     6.0000    0    12.011  -51.047172  -42.868437  -16.863916
 160 H     1.0000    0     1.008  -52.657219  -44.117546  -16.340462
 161 C     6.0000    0    12.011  -52.122426  -40.202034  -17.145485
 162 O     8.0000    0    15.999  -49.229256  -42.855209  -14.934506
 163 H     1.0000    0     1.008  -53.600192  -40.166129  -18.636479
 164 H     1.0000    0     1.008  -50.601197  -38.845210  -17.653822
 165 H     1.0000    0     1.008  -52.989811  -39.589763  -15.335128
 166 H     1.0000    0     1.008  -49.223586  -44.571081  -14.174836
 167 H     1.0000    0     1.008  -42.533956  -44.767612  -25.095563
 168 H     1.0000    0     1.008  -39.474489  -45.243823  -26.378687
 169 C     6.0000    0    12.011  -39.506615  -44.368880  -22.355460
 170 H     1.0000    0     1.008  -40.776511  -44.629662  -20.696281
 171 C     6.0000    0    12.011  -39.242053  -41.522952  -22.767420
 172 O     8.0000    0    15.999  -37.106662  -45.385553  -21.858462
 173 H     1.0000    0     1.008  -41.120441  -40.661237  -23.130248
 174 H     1.0000    0     1.008  -37.981606  -41.129889  -24.400144
 175 H     1.0000    0     1.008  -38.420022  -40.629112  -21.055329
 176 H     1.0000    0     1.008  -37.350437  -46.817965  -20.673604
 177 H     1.0000    0     1.008  -45.548069  -49.688459  -28.491401
 178 H     1.0000    0     1.008  -47.006938  -50.281833  -31.431815
 179 C     6.0000    0    12.011  -43.943692  -47.443464  -31.505514
 180 H     1.0000    0     1.008  -42.137113  -47.152446  -30.462385
 181 C     6.0000    0    12.011  -45.693578  -45.198470  -31.004737
 182 O     8.0000    0    15.999  -43.475039  -47.638106  -34.109557
 183 H     1.0000    0     1.008  -46.065854  -45.009497  -28.946825
 184 H     1.0000    0     1.008  -47.519053  -45.451693  -32.011961
 185 H     1.0000    0     1.008  -44.790289  -43.427796  -31.679369
 186 H     1.0000    0     1.008  -42.121996  -46.402225  -34.513958
 187 H     1.0000    0     1.008  -49.076188  -52.403995  -37.208708
 188 H     1.0000    0     1.008  -50.979142  -53.976248  -39.476379
 189 C     6.0000    0    12.011  -46.933238  -54.169000  -40.222821
 190 H     1.0000    0     1.008  -45.128550  -54.170889  -39.138118
 191 C     6.0000    0    12.011  -46.921900  -51.791724  -41.863103
 192 O     8.0000    0    15.999  -47.071188  -56.293052  -41.804522
 193 H     1.0000    0     1.008  -46.778281  -50.075853  -40.659347
 194 H     1.0000    0     1.008  -48.679345  -51.678341  -43.006387
 195 H     1.0000    0     1.008  -45.274059  -51.831408  -43.161345
 196 H     1.0000    0     1.008  -46.143333  -57.678221  -40.946586
 197 H     1.0000    0     1.008  -57.986246  -56.342185  -37.021625
 198 H     1.0000    0     1.008  -60.992801  -57.748141  -36.469825
 199 C     6.0000    0    12.011  -58.587179  -59.872193  -39.032293
 200 H     1.0000    0     1.008  -56.534937  -60.208564  -39.361106
 201 C     6.0000    0    12.011  -59.617080  -58.577731  -41.398230
 202 O     8.0000    0    15.999  -59.864634  -62.171990  -38.694032
 203 H     1.0000    0     1.008  -58.615525  -56.763594  -41.730822
 204 H     1.0000    0     1.008  -61.673102  -58.196006  -41.194140
 205 H     1.0000    0     1.008  -59.326062  -59.813612  -43.068748
 206 H     1.0000    0     1.008  -58.668438  -63.349289  -37.860663
 207 H     1.0000    0     1.008  -54.656549  -55.516374  -27.542758
 208 H     1.0000    0     1.008  -55.442675  -52.196126  -27.489846
 209 C     6.0000    0    12.011  -55.128981  -53.766488  -31.218276
 210 H     1.0000    0     1.008  -55.461572  -55.616530  -32.163139
 211 C     6.0000    0    12.011  -52.337855  -53.063510  -31.490396
 212 O     8.0000    0    15.999  -56.638872  -51.889990  -32.331324
 213 H     1.0000    0     1.008  -51.122761  -54.548835  -30.638130
 214 H     1.0000    0     1.008  -51.942902  -51.228586  -30.551202
 215 H     1.0000    0     1.008  -51.848416  -52.895324  -33.521852
 216 H     1.0000    0     1.008  -56.631313  -52.211243  -34.181366

--------------------------------
INTERNAL COORDINATES (ANGSTROEM)
--------------------------------
 C      0   0   0     0.000000000000     0.00000000     0.00000000
 C      1   0   0     1.534104298931     0.00000000     0.00000000
 C      2   1   0     1.536719232651   108.24202130     0.00000000
 C      3   2   1     1.547075951594   110.27548203   303.14847555
 C      4   3   2     1.563560360204   109.26555401    50.50459590
 C      5   4   3     1.535689096139   113.10598329   189.74257352
 O      2   1   3     1.401604081044   110.19691793   121.74009324
 O      3   2   1     1.402007845912   109.64153450   181.91872729
 O      4   3   2     1.422790567863   107.69161322   168.94526588
 O      1   2   3     1.414977384978   108.12503722    63.38297523
 O      6   5   4     1.411392928989   112.11111838   298.60734594
 H      1   2   3     1.112633812177   108.38039664   177.82736445
 H      2   1   3     1.116886296809   107.59913562   240.96527174
 H      3   2   1     1.117439036368   109.05903423    61.32223646
 H      4   3   2     1.114616077401   107.75506938   293.59865643
 H      5   4   3     1.114560451479   109.67527647    70.37572371
 H      6   5   4     1.112685490154   108.45443522    60.85948484
 H      6   5   4     1.114689642905   106.14038506   178.72281353
 H      7   2   1     0.992295822827   107.10478382   156.66455684
 H      8   3   2     0.993068980484   107.13283049   271.95524667
 C     11   6   5     1.420439720650   110.32126782   185.26624969
 C     12   1   2     5.264412217902    86.07780467   116.46093664
 C     22  12   1     1.542251600745    64.41190150   283.47913690
 C     23  22  12     1.532505464917   109.40329422    41.73696676
 C     24  23  22     1.541628359884   109.55049277   303.48016337
 C     25  24  23     1.554230999562   107.74952137    54.88653998
 C     26  25  24     1.535285641176   113.60300624   181.43303430
 O     23  22  12     1.403696192201   110.17795583   162.94064726
 O     24  23  22     1.402287060484   110.01187174   182.19275481
 O     25  24  23     1.419842244758   107.74032481   173.36450968
 O     22  12   1     1.420838132934    48.22565549   125.34097643
 O     27  26  25     1.414374773531   110.53435475   296.36722770
 H     22  12   1     1.113985637250   134.94772313   195.96827886
 H     23  22  12     1.117161134304   107.48991923   282.87650381
 H     24  23  22     1.117536576583   109.37604546    61.51275098
 H     25  24  23     1.115056052403   108.06436198   297.06660022
 H     26  25  24     1.108986023356   108.27059850    63.77026473
 H     27  26  25     1.111005850570   109.54604127    58.74268326
 H     27  26  25     1.115317443601   105.38837582   176.75653814
 H     28  23  22     0.992588535094   107.10205433   152.48301588
 H     29  24  23     0.992873103674   107.23846119   271.58542758
 C     32  27  26     1.417687553730   111.53689448   195.05584261
 C     33  22  12     5.160450464833    88.23533957   186.54720547
 C     43  33  22     1.534725056810    46.34258991   219.00916204
 C     44  43  33     1.539499594024   108.81990715    30.62126481
 C     45  44  43     1.550386725949   110.18128916   304.56891242
 C     46  45  44     1.561249179343   109.36415983    49.94649630
 C     47  46  45     1.535866530659   112.64720729   187.57374728
 O     44  43  33     1.402633594350   110.00237845   152.32078077
 O     45  44  43     1.402901992300   109.49209049   183.27818760
 O     46  45  44     1.423458815702   109.89247363   168.74311571
 O     43  33  22     1.417475572982    68.34207943    72.01198715
 O     48  47  46     1.415233549631   110.60688620   299.36150506
 H     43  33  22     1.112428424664   142.40245202   161.26271846
 H     44  43  33     1.117263174010   107.40417439   271.56184537
 H     45  44  43     1.116837051678   109.19468919    62.56023576
 H     46  45  44     1.115610146960   109.60273761   293.43733431
 H     47  46  45     1.114116690477   109.93948977    69.34428637
 H     48  47  46     1.111479194587   109.88374606    59.49647089
 H     48  47  46     1.114021992602   107.12173082   175.11006381
 H     49  44  43     0.992863031843   107.13705133   154.09845030
 H     50  45  44     0.992416243317   107.04091944   277.07930608
 C     53  48  47     1.415444099921   112.91503307   230.59049995
 C     43  33  22     5.299727634511   130.70706773   315.28415485
 C     64  43  33     1.535897457515    63.71530825   282.67579918
 C     65  64  43     1.538330913685   108.20019139    26.02621798
 C     66  65  64     1.545258877988   110.32895281   303.81424727
 C     67  66  65     1.559393792472   109.10799674    51.29070288
 C     68  67  66     1.536409776069   113.65741622   186.29198230
 O     65  64  43     1.401894789205   110.10304356   147.56701663
 O     66  65  64     1.402810393460   110.11286414   182.22921248
 O     67  66  65     1.418678610539   107.08658070   169.66507749
 O     64  43  33     1.418740638736    56.92191328   145.32194749
 O     69  68  67     1.411728373307   111.05358171   296.79521554
 H     64  43  33     1.112249072825   153.19416546   203.30360366
 H     65  64  43     1.116839290140   107.61176116   266.92629102
 H     66  65  64     1.118352359500   108.88182870    61.73487908
 H     67  66  65     1.115012555983   107.56545844   293.40152711
 H     68  67  66     1.114295292999   109.69382886    68.21334809
 H     69  68  67     1.112443256980   109.25500917    59.15171043
 H     69  68  67     1.116330596195   105.66294378   177.28762069
 H     70  65  64     0.991806936858   107.02937971   157.29164300
 H     71  66  65     0.993683048059   107.17354372   271.94906400
 C     74  69  68     1.418601071479   111.27354051   191.29806877
 C     75  64  43     5.302201523896    84.20531480   186.57461072
 C     85  75  64     1.540798818795    64.95807512   281.01047686
 C     86  85  75     1.531747694629   108.97506329    39.67020280
 C     87  86  85     1.541711062424   110.20757581   303.71440155
 C     88  87  86     1.554880059683   108.22693079    52.85068901
 C     89  88  87     1.536725414640   113.80674348   183.22309256
 O     86  85  75     1.403064146787   110.06023638   160.60774364
 O     87  86  85     1.403631005642   110.16331483   182.11504209
 O     88  87  86     1.415985169414   106.74306622   170.32826921
 O     85  75  64     1.420081687791    48.64170962   127.37180002
 O     90  89  88     1.412341672542   110.75415952   297.80618893
 H     85  75  64     1.113432081449   138.08132400   194.50648147
 H     86  85  75     1.117457829182   107.64763449   280.54406869
 H     87  86  85     1.118225826924   108.87710237    61.62810783
 H     88  87  86     1.115034528613   108.33745396   294.19829803
 H     89  88  87     1.103012692583   107.78724698    65.69269895
 H     90  89  88     1.112408647935   109.57103237    59.90534325
 H     90  89  88     1.115862446720   105.47949241   178.14714368
 H     91  86  85     0.992363844565   107.11424764   153.65170284
 H     92  87  86     0.992024193253   107.26261858   271.28908363
 C     95  90  89     1.418259849252   111.64931381   195.13425438
 C     96  85  75     5.157059433437    88.99185981   188.86312190
 C    106  96  85     1.536307911846    45.85773629   219.03314430
 C    107 106  96     1.539977597240   109.14669626    31.68208271
 C    108 107 106     1.550231595601   110.06942904   304.70582566
 C    109 108 107     1.559125716548   108.67366163    51.23184310
 C    110 109 108     1.542829219324   112.89278791   185.47937029
 O    107 106  96     1.402143359290   109.97626003   153.63797322
 O    108 107 106     1.403931978409   109.50395358   183.45301742
 O    109 108 107     1.421743296098   110.08694160   170.35540031
 O    106  96  85     1.419612623218    67.98310774    69.71581209
 O    111 110 109     1.412626277541   113.49119647   295.06726351
 H    106  96  85     1.112547527075   140.40535073   158.94999798
 H    107 106  96     1.117330300314   107.21650642   272.83264487
 H    108 107 106     1.116677213881   109.26584231    62.72565943
 H    109 108 107     1.115946235264   109.86766361   294.83323772
 H    110 109 108     1.111422961793   110.15581415    66.43819920
 H    111 110 109     1.110780356326   108.95444200    55.98149471
 H    111 110 109     1.110888833322   110.77961804   170.50295209
 H    112 107 106     0.992929000483   107.14179579   153.85950327
 H    113 108 107     0.993242165839   106.99256283   276.14857413
 C    116 111 110     1.420267932469   111.73557197   287.20036969
 C      9   4   3     1.426139193768   116.65082933   118.58533319
 C    127   9   4     1.539952271988   111.32600527   244.28618248
 C    128 127   9     1.536881582946   108.76248702   300.82322573
 C    129 128 127     1.542146880164   109.78343438   303.12669000
 C    130 129 128     1.559084988062   108.75019787    52.58379191
 C    131 130 129     1.534583005249   112.47272223   185.50516595
 O    128 127   9     1.400402085117   110.42548872    62.50911451
 O    129 128 127     1.403077688512   110.16066002   182.07917694
 O    130 129 128     1.420449576719   107.66518533   171.94106303
 O    127   9   4     1.420082391976   110.10603443   124.31017593
 O    132 131 130     1.410170911627   110.83883213   293.46673742
 H    127   9   4     1.111896577924   112.79929683     4.95181642
 H    128 127   9     1.116592584607   107.47196743   181.87333104
 H    129 128 127     1.118072001259   109.27832664    61.27900784
 H    130 129 128     1.115380204235   107.09320730   295.29269338
 H    131 130 129     1.114411952556   110.26643096    67.03381779
 H    132 131 130     1.113169349201   109.02543452    56.02421426
 H    132 131 130     1.110348593911   106.99931069   174.45637534
 H    133 128 127     0.993241159034   107.10984522   155.49878448
 H    134 129 128     0.993349888005   107.15085227   272.20198058
 C    137 132 131     1.418849533953   110.83455038   186.72370607
 H    147 137 132     1.109850890886   107.55804193   226.22939791
 C    147 137 132     1.535087293935   110.26337551   106.85888699
 H    147 137 132     1.117230951952   113.75651380   342.75725308
 H    149 147 137     1.113215163389   108.01996459    56.64380444
 O    149 147 137     1.402346961347   109.63158992   296.80839977
 C    149 147 137     1.529726119278   110.69728889   175.81819383
 H    153 149 147     1.110805563544   110.29033390   300.44239922
 H    153 149 147     1.110854625952   109.81822434   181.05234418
 H    153 149 147     1.111522829275   110.49573549    61.07967391
 H    152 149 147     0.993213974932   107.01186169   156.99495772
 H     21  11   6     1.109178975639   107.59891736   133.65394348
 H     21  11   6     1.117831382633   114.11324162    17.46034840
 C     21  11   6     1.536747539448   110.97680441   253.47160812
 H    160  21  11     1.113352594644   110.02774302   301.70482616
 C    160  21  11     1.528686691248   110.64249348   184.04542919
 O    160  21  11     1.402830709672   110.35453935    63.62817603
 H    162 160  21     1.111038253167   110.30295998    59.85262937
 H    162 160  21     1.111714891508   110.49889311   299.16870501
 H    162 160  21     1.110594885636   109.81794055   179.34152130
 H    163 160  21     0.993014098591   106.98663513   272.35804245
 H     42  32  27     1.110504840152   107.26543797   134.99094157
 H     42  32  27     1.116348959779   114.16721398    18.38253786
 C     42  32  27     1.535085665362   110.82610138   254.16691472
 H    170  42  32     1.114231573776   109.69667248   302.22838224
 C    170  42  32     1.528123031696   110.78072350   184.51864531
 O    170  42  32     1.404105765247   110.19961612    64.12149402
 H    172 170  42     1.110331482036   110.32802370    59.78699409
 H    172 170  42     1.111147604956   110.51218728   299.13346825
 H    172 170  42     1.110761000396   109.82738358   179.30206833
 H    173 170  42     0.992136079376   107.06807377   268.78341593
 H     63  53  48     1.111575908339   106.77847138   154.67204050
 H     63  53  48     1.113601813935   112.91183170    39.80135723
 C     63  53  48     1.536541896598   111.27070464   272.81073641
 H    180  63  53     1.114610245781   107.77851038   304.69300983
 C    180  63  53     1.529393670707   110.64389685   185.55977794
 O    180  63  53     1.403922006381   109.68321977    64.63872373
 H    182 180  63     1.111184053161   110.30760014    59.54517737
 H    182 180  63     1.111395969041   110.45717467   298.88719736
 H    182 180  63     1.110811415138   109.81620293   178.93579704
 H    183 180  63     0.993059917628   106.89171924   203.01075811
 H     84  74  69     1.109974324027   107.46308722   134.25357789
 H     84  74  69     1.116448834475   114.08823217    17.50757067
 C     84  74  69     1.535836579848   110.87733715   253.31562708
 H    190  84  74     1.114227086370   109.72570534   302.18374786
 C    190  84  74     1.528405705302   110.69226966   184.49402657
 O    190  84  74     1.403308234138   110.24732172    64.17889733
 H    192 190  84     1.111759416421   110.31021780    59.79468257
 H    192 190  84     1.111091805388   110.51146049   299.22531485
 H    192 190  84     1.110312568604   109.81037152   179.25268662
 H    193 190  84     0.992212678814   107.04124512   269.98239138
 H    105  95  90     1.111103055526   107.39301575   129.64941877
 H    105  95  90     1.116978513670   114.28488286    12.26602438
 C    105  95  90     1.534657616539   110.42794366   248.86856697
 H    200 105  95     1.114161568176   109.71307960   302.39259932
 C    200 105  95     1.527662920935   110.76918588   184.55784384
 O    200 105  95     1.403604645190   110.07796408    64.24689195
 H    202 200 105     1.110619646864   110.31702382    59.84122289
 H    202 200 105     1.111850709403   110.54592977   299.22772441
 H    202 200 105     1.110354898219   109.80949513   179.33959638
 H    203 200 105     0.991614340356   107.09855858   270.96828878
 H    126 116 111     1.112435166650   108.75221317    95.55355033
 H    126 116 111     1.114565834754   113.50171120   334.86467502
 C    126 116 111     1.530766148045   109.42713563   214.81076031
 H    210 126 116     1.113291067062   108.15118454   301.48788488
 C    210 126 116     1.529917971657   110.81964087   182.17092646
 O    210 126 116     1.404055198345   109.09103076    61.22749417
 H    212 210 126     1.111146255000   110.39336733    60.20000293
 H    212 210 126     1.110644407540   110.61763365   299.29296271
 H    212 210 126     1.109336288057   109.64031173   179.50527264
 H    213 210 126     0.993658392004   106.85929244   201.81205461

---------------------------
INTERNAL COORDINATES (A.U.)
---------------------------
 C      0   0   0     0.000000000000     0.00000000     0.00000000
 C      1   0   0     2.899036985852     0.00000000     0.00000000
 C      2   1   0     2.903978494440   108.24202130     0.00000000
 C      3   2   1     2.923549856888   110.27548203   303.14847555
 C      4   3   2     2.954700874640   109.26555401    50.50459590
 C      5   4   3     2.902031818552   113.10598329   189.74257352
 O      2   1   3     2.648647861360   110.19691793   121.74009324
 O      3   2   1     2.649410866383   109.64153450   181.91872729
 O      4   3   2     2.688684519187   107.69161322   168.94526588
 O      1   2   3     2.673919743301   108.12503722    63.38297523
 O      6   5   4     2.667146103142   112.11111838   298.60734594
 H      1   2   3     2.102573192356   108.38039664   177.82736445
 H      2   1   3     2.110609223699   107.59913562   240.96527174
 H      3   2   1     2.111653750089   109.05903423    61.32223646
 H      4   3   2     2.106319130753   107.75506938   293.59865643
 H      5   4   3     2.106214012994   109.67527647    70.37572371
 H      6   5   4     2.102670849580   108.45443522    60.85948484
 H      6   5   4     2.106458149409   106.14038506   178.72281353
 H      7   2   1     1.875167348977   107.10478382   156.66455684
 H      8   3   2     1.876628405208   107.13283049   271.95524667
 C     11   6   5     2.684242061772   110.32126782   185.26624969
 C     12   1   2     9.948297347904    86.07780467   116.46093664
 C     22  12   1     2.914433155009    64.41190150   283.47913690
 C     23  22  12     2.896015627430   109.40329422    41.73696676
 C     24  23  22     2.913255400468   109.55049277   303.48016337
 C     25  24  23     2.937070938023   107.74952137    54.88653998
 C     26  25  24     2.901269399164   113.60300624   181.43303430
 O     23  22  12     2.652601378488   110.17795583   162.94064726
 O     24  23  22     2.649938505456   110.01187174   182.19275481
 O     25  24  23     2.683112995965   107.74032481   173.36450968
 O     22  12   1     2.684994951878    48.22565549   125.34097643
 O     27  26  25     2.672780972700   110.53435475   296.36722770
 H     22  12   1     2.105127771525   134.94772313   195.96827886
 H     23  22  12     2.111128591296   107.48991923   282.87650381
 H     24  23  22     2.111838074381   109.37604546    61.51275098
 H     25  24  23     2.107150563013   108.06436198   297.06660022
 H     26  25  24     2.095679870490   108.27059850    63.77026473
 H     27  26  25     2.099496790761   109.54604127    58.74268326
 H     27  26  25     2.107644520790   105.38837582   176.75653814
 H     28  23  22     1.875720494998   107.10205433   152.48301588
 H     29  24  23     1.876258251681   107.23846119   271.58542758
 C     32  27  26     2.679041220018   111.53689448   195.05584261
 C     33  22  12     9.751838106202    88.23533957   186.54720547
 C     43  33  22     2.900210048237    46.34258991   219.00916204
 C     44  43  33     2.909232615988   108.81990715    30.62126481
 C     45  44  43     2.929806313711   110.18128916   304.56891242
 C     46  45  44     2.950333375768   109.36415983    49.94649630
 C     47  46  45     2.902367121202   112.64720729   187.57374728
 O     44  43  33     2.650593359560   110.00237845   152.32078077
 O     45  44  43     2.651100558180   109.49209049   183.27818760
 O     46  45  44     2.689947324593   109.89247363   168.74311571
 O     43  33  22     2.678640634459    68.34207943    72.01198715
 O     48  47  46     2.674403824339   110.60688620   299.36150506
 H     43  33  22     2.102185066204   142.40245202   161.26271846
 H     44  43  33     2.111321418395   107.40417439   271.56184537
 H     45  44  43     2.110516163887   109.19468919    62.56023576
 H     46  45  44     2.108197649978   109.60273761   293.43733431
 H     47  46  45     2.105375426233   109.93948977    69.34428637
 H     48  47  46     2.100391281321   109.88374606    59.49647089
 H     48  47  46     2.105196473182   107.12173082   175.11006381
 H     49  44  43     1.876239218678   107.13705133   154.09845030
 H     50  45  44     1.875394910725   107.04091944   277.07930608
 C     53  48  47     2.674801706725   112.91503307   230.59049995
 C     43  33  22    10.015033813600   130.70706773   315.28415485
 C     64  43  33     2.902425564489    63.71530825   282.67579918
 C     65  64  43     2.907024130210   108.20019139    26.02621798
 C     66  65  64     2.920116085407   110.32895281   303.81424727
 C     67  66  65     2.946827202709   109.10799674    51.29070288
 C     68  67  66     2.903393706249   113.65741622   186.29198230
 O     65  64  43     2.649197220169   110.10304356   147.56701663
 O     66  65  64     2.650927461458   110.11286414   182.22921248
 O     67  66  65     2.680914045970   107.08658070   169.66507749
 O     64  43  33     2.681031262275    56.92191328   145.32194749
 O     69  68  67     2.667780001036   111.05358171   296.79521554
 H     64  43  33     2.101846140347   153.19416546   203.30360366
 H     65  64  43     2.110520393967   107.61176116   266.92629102
 H     66  65  64     2.113379680680   108.88182870    61.73487908
 H     67  66  65     2.107068366692   107.56545844   293.40152711
 H     68  67  66     2.105712936086   109.69382886    68.21334809
 H     69  68  67     2.102213095219   109.25500917    59.15171043
 H     69  68  67     2.109559101725   105.66294378   177.28762069
 H     70  65  64     1.874243488385   107.02937971   157.29164300
 H     71  66  65     1.877788824752   107.17354372   271.94906400
 C     74  69  68     2.680767518382   111.27354051   191.29806877
 C     75  64  43    10.019708787022    84.20531480   186.57461072
 C     85  75  64     2.911687794992    64.95807512   281.01047686
 C     86  85  75     2.894583649113   108.97506329    39.67020280
 C     87  86  85     2.913411685618   110.20757581   303.71440155
 C     88  87  86     2.938297483896   108.22693079    52.85068901
 C     89  88  87     2.903990176706   113.80674348   183.22309256
 O     86  85  75     2.651406985752   110.06023638   160.60774364
 O     87  86  85     2.652478193744   110.16331483   182.11504209
 O     88  87  86     2.675824179886   106.74306622   170.32826921
 O     85  75  64     2.683565477722    48.64170962   127.37180002
 O     90  89  88     2.668938968630   110.75415952   297.80618893
 H     85  75  64     2.104081702661   138.08132400   194.50648147
 H     86  85  75     2.111689263360   107.64763449   280.54406869
 H     87  86  85     2.113140568764   108.87710237    61.62810783
 H     88  87  86     2.107109888945   108.33745396   294.19829803
 H     89  88  87     2.084391911222   107.78724698    65.69269895
 H     90  89  88     2.102147693602   109.57103237    59.90534325
 H     90  89  88     2.108674427428   105.47949241   178.14714368
 H     91  86  85     1.875295891433   107.11424764   153.65170284
 H     92  87  86     1.874654043473   107.26261858   271.28908363
 C     95  90  89     2.680122701823   111.64931381   195.13425438
 C     96  85  75     9.745429985551    88.99185981   188.86312190
 C    106  96  85     2.903201210765    45.85773629   219.03314430
 C    107 106  96     2.910135911157   109.14669626    31.68208271
 C    108 107 106     2.929513159838   110.06942904   304.70582566
 C    109 108 107     2.946320612629   108.67366163    51.23184310
 C    110 109 108     2.915524695934   112.89278791   185.47937029
 O    107 106  96     2.649666949554   109.97626003   153.63797322
 O    108 107 106     2.653046949848   109.50395358   183.45301742
 O    109 108 107     2.686705462364   110.08694160   170.35540031
 O    106  96  85     2.682679074140    67.98310774    69.71581209
 O    111 110 109     2.669476794134   113.49119647   295.06726351
 H    106  96  85     2.102410137142   140.40535073   158.94999798
 H    107 106  96     2.111448268726   107.21650642   272.83264487
 H    108 107 106     2.110214114224   109.26584231    62.72565943
 H    109 108 107     2.108832764829   109.86766361   294.83323772
 H    110 109 108     2.100285016740   110.15581415    66.43819920
 H    111 110 109     2.099070668396   108.95444200    55.98149471
 H    111 110 109     2.099275660210   110.77961804   170.50295209
 H    112 107 106     1.876363881341   107.14179579   153.85950327
 H    113 108 107     1.876955678098   106.99256283   276.14857413
 C    116 111 110     2.683917429157   111.73557197   287.20036969
 C      9   4   3     2.695012505072   116.65082933   118.58533319
 C    127   9   4     2.910088053367   111.32600527   244.28618248
 C    128 127   9     2.904285292036   108.76248702   300.82322573
 C    129 128 127     2.914235261791   109.78343438   303.12669000
 C    130 129 128     2.946243646945   108.75019787    52.58379191
 C    131 130 129     2.899941609691   112.47272223   185.50516595
 O    128 127   9     2.646376418243   110.42548872    62.50911451
 O    129 128 127     2.651432575903   110.16066002   182.07917694
 O    130 129 128     2.684260687042   107.66518533   171.94106303
 O    127   9   4     2.683566808438   110.10603443   124.31017593
 O    132 131 130     2.664836824998   110.83883213   293.46673742
 H    127   9   4     2.101180021521   112.79929683     4.95181642
 H    128 127   9     2.110054188075   107.47196743   181.87333104
 H    129 128 127     2.112849880385   109.27832664    61.27900784
 H    130 129 128     2.107763121202   107.09320730   295.29269338
 H    131 130 129     2.105933390700   110.26643096    67.03381779
 H    132 131 130     2.103585210665   109.02543452    56.02421426
 H    132 131 130     2.098254755676   106.99931069   174.45637534
 H    133 128 127     1.876953775514   107.10984522   155.49878448
 H    134 129 128     1.877159243491   107.15085227   272.20198058
 C    137 132 131     2.681237044414   110.83455038   186.72370607
 H    147 137 132     2.097314233263   107.55804193   226.22939791
 C    147 137 132     2.900894577199   110.26337551   106.85888699
 H    147 137 132     2.111260527530   113.75651380   342.75725308
 H    149 147 137     2.103671786934   108.01996459    56.64380444
 O    149 147 137     2.650051701683   109.63158992   296.80839977
 C    149 147 137     2.890763425341   110.69728889   175.81819383
 H    153 149 147     2.099118303134   110.29033390   300.44239922
 H    153 149 147     2.099211017650   109.81822434   181.05234418
 H    153 149 147     2.100473738931   110.49573549    61.07967391
 H    152 149 147     1.876902405005   107.01186169   156.99495772
 H     21  11   6     2.096044497461   107.59891736   133.65394348
 H     21  11   6     2.112395177080   114.11324162    17.46034840
 C     21  11   6     2.904031986534   110.97680441   253.47160812
 H    160  21  11     2.103931494367   110.02774302   301.70482616
 C    160  21  11     2.888799191030   110.64249348   184.04542919
 O    160  21  11     2.650965853535   110.35453935    63.62817603
 H    162 160  21     2.099558022796   110.30295998    59.85262937
 H    162 160  21     2.100836683952   110.49889311   299.16870501
 H    162 160  21     2.098720179585   109.81794055   179.34152130
 H    163 160  21     1.876524693459   106.98663513   272.35804245
 H     42  32  27     2.098550018280   107.26543797   134.99094157
 H     42  32  27     2.109593803870   114.16721398    18.38253786
 C     42  32  27     2.900891499643   110.82610138   254.16691472
 H    170  42  32     2.105592524205   109.69667248   302.22838224
 C    170  42  32     2.887734028843   110.78072350   184.51864531
 O    170  42  32     2.653375359377   110.19961612    64.12149402
 H    172 170  42     2.098222418919   110.32802370    59.78699409
 H    172 170  42     2.099764667730   110.51218728   299.13346825
 H    172 170  42     2.099034090988   109.82738358   179.30206833
 H    173 170  42     1.874865477603   107.06807377   268.78341593
 H     63  53  48     2.100574043826   106.77847138   154.67204050
 H     63  53  48     2.104402450576   112.91183170    39.80135723
 C     63  53  48     2.903643377866   111.27070464   272.81073641
 H    180  63  53     2.106308110589   107.77851038   304.69300983
 C    180  63  53     2.890135188590   110.64389685   185.55977794
 O    180  63  53     2.653028105445   109.68321977    64.63872373
 H    182 180  63     2.099833544855   110.30760014    59.54517737
 H    182 180  63     2.100234007831   110.45717467   298.88719736
 H    182 180  63     2.099129361044   109.81620293   178.93579704
 H    183 180  63     1.876611278892   106.89171924   203.01075811
 H     84  74  69     2.097547488096   107.46308722   134.25357789
 H     84  74  69     2.109782539693   114.08823217    17.50757067
 C     84  74  69     2.902310522371   110.87733715   253.31562708
 H    190  84  74     2.105584044236   109.72570534   302.18374786
 C    190  84  74     2.888268204544   110.69226966   184.49402657
 O    190  84  74     2.651868243998   110.24732172    64.17889733
 H    192 190  84     2.100920823843   110.31021780    59.79468257
 H    192 190  84     2.099659221827   110.51146049   299.22531485
 H    192 190  84     2.098186677712   109.81037152   179.25268662
 H    193 190  84     1.875010229564   107.04124512   269.98239138
 H    105  95  90     2.099680481508   107.39301575   129.64941877
 H    105  95  90     2.110783488310   114.28488286    12.26602438
 C    105  95  90     2.900082604594   110.42794366   248.86856697
 H    200 105  95     2.105460232793   109.71307960   302.39259932
 C    200 105  95     2.886864545514   110.76918588   184.55784384
 O    200 105  95     2.652428379710   110.07796408    64.24689195
 H    202 200 105     2.098766971525   110.31702382    59.84122289
 H    202 200 105     2.101093342578   110.54592977   299.22772441
 H    202 200 105     2.098266669093   109.80949513   179.33959638
 H    203 200 105     1.873879533742   107.09855858   270.96828878
 H    126 116 111     2.102197806712   108.75221317    95.55355033
 H    126 116 111     2.106224185910   113.50171120   334.86467502
 C    126 116 111     2.892728794882   109.42713563   214.81076031
 H    210 126 116     2.103815224088   108.15118454   301.48788488
 C    210 126 116     2.891125973797   110.81964087   182.17092646
 O    210 126 116     2.653279801781   109.09103076    61.22749417
 H    212 210 126     2.099762116682   110.39336733    60.20000293
 H    212 210 126     2.098813762422   110.61763365   299.29296271
 H    212 210 126     2.096341774848   109.64031173   179.50527264
 H    213 210 126     1.877742231560   106.85929244   201.81205461

---------------------
BASIS SET INFORMATION
---------------------
There are 3 groups of distinct atoms

 Group   1 Type C   : 7s4p1d contracted to 3s2p1d pattern {511/31/1}
 Group   2 Type O   : 7s4p1d contracted to 3s2p1d pattern {511/31/1}
 Group   3 Type H   : 4s1p contracted to 2s1p pattern {31/1}

Atom   0C    basis set group =>   1
Atom   1C    basis set group =>   1
Atom   2C    basis set group =>   1
Atom   3C    basis set group =>   1
Atom   4C    basis set group =>   1
Atom   5C    basis set group =>   1
Atom   6O    basis set group =>   2
Atom   7O    basis set group =>   2
Atom   8O    basis set group =>   2
Atom   9O    basis set group =>   2
Atom  10O    basis set group =>   2
Atom  11H    basis set group =>   3
Atom  12H    basis set group =>   3
Atom  13H    basis set group =>   3
Atom  14H    basis set group =>   3
Atom  15H    basis set group =>   3
Atom  16H    basis set group =>   3
Atom  17H    basis set group =>   3
Atom  18H    basis set group =>   3
Atom  19H    basis set group =>   3
Atom  20C    basis set group =>   1
Atom  21C    basis set group =>   1
Atom  22C    basis set group =>   1
Atom  23C    basis set group =>   1
Atom  24C    basis set group =>   1
Atom  25C    basis set group =>   1
Atom  26C    basis set group =>   1
Atom  27O    basis set group =>   2
Atom  28O    basis set group =>   2
Atom  29O    basis set group =>   2
Atom  30O    basis set group =>   2
Atom  31O    basis set group =>   2
Atom  32H    basis set group =>   3
Atom  33H    basis set group =>   3
Atom  34H    basis set group =>   3
Atom  35H    basis set group =>   3
Atom  36H    basis set group =>   3
Atom  37H    basis set group =>   3
Atom  38H    basis set group =>   3
Atom  39H    basis set group =>   3
Atom  40H    basis set group =>   3
Atom  41C    basis set group =>   1
Atom  42C    basis set group =>   1
Atom  43C    basis set group =>   1
Atom  44C    basis set group =>   1
Atom  45C    basis set group =>   1
Atom  46C    basis set group =>   1
Atom  47C    basis set group =>   1
Atom  48O    basis set group =>   2
Atom  49O    basis set group =>   2
Atom  50O    basis set group =>   2
Atom  51O    basis set group =>   2
Atom  52O    basis set group =>   2
Atom  53H    basis set group =>   3
Atom  54H    basis set group =>   3
Atom  55H    basis set group =>   3
Atom  56H    basis set group =>   3
Atom  57H    basis set group =>   3
Atom  58H    basis set group =>   3
Atom  59H    basis set group =>   3
Atom  60H    basis set group =>   3
Atom  61H    basis set group =>   3
Atom  62C    basis set group =>   1
Atom  63C    basis set group =>   1
Atom  64C    basis set group =>   1
Atom  65C    basis set group =>   1
Atom  66C    basis set group =>   1
Atom  67C    basis set group =>   1
Atom  68C    basis set group =>   1
Atom  69O    basis set group =>   2
Atom  70O    basis set group =>   2
Atom  71O    basis set group =>   2
Atom  72O    basis set group =>   2
Atom  73O    basis set group =>   2
Atom  74H    basis set group =>   3
Atom  75H    basis set group =>   3
Atom  76H    basis set group =>   3
Atom  77H    basis set group =>   3
Atom  78H    basis set group =>   3
Atom  79H    basis set group =>   3
Atom  80H    basis set group =>   3
Atom  81H    basis set group =>   3
Atom  82H    basis set group =>   3
Atom  83C    basis set group =>   1
Atom  84C    basis set group =>   1
Atom  85C    basis set group =>   1
Atom  86C    basis set group =>   1
Atom  87C    basis set group =>   1
Atom  88C    basis set group =>   1
Atom  89C    basis set group =>   1
Atom  90O    basis set group =>   2
Atom  91O    basis set group =>   2
Atom  92O    basis set group =>   2
Atom  93O    basis set group =>   2
Atom  94O    basis set group =>   2
Atom  95H    basis set group =>   3
Atom  96H    basis set group =>   3
Atom  97H    basis set group =>   3
Atom  98H    basis set group =>   3
Atom  99H    basis set group =>   3
Atom 100H    basis set group =>   3
Atom 101H    basis set group =>   3
Atom 102H    basis set group =>   3
Atom 103H    basis set group =>   3
Atom 104C    basis set group =>   1
Atom 105C    basis set group =>   1
Atom 106C    basis set group =>   1
Atom 107C    basis set group =>   1
Atom 108C    basis set group =>   1
Atom 109C    basis set group =>   1
Atom 110C    basis set group =>   1
Atom 111O    basis set group =>   2
Atom 112O    basis set group =>   2
Atom 113O    basis set group =>   2
Atom 114O    basis set group =>   2
Atom 115O    basis set group =>   2
Atom 116H    basis set group =>   3
Atom 117H    basis set group =>   3
Atom 118H    basis set group =>   3
Atom 119H    basis set group =>   3
Atom 120H    basis set group =>   3
[...]
 82 H      0.8343     1.0000     0.1657     1.0213     1.0213     0.0000
 83 C      5.7640     6.0000     0.2360     3.9193     3.9193     0.0000
 84 C      5.6493     6.0000     0.3507     4.0170     4.0170    -0.0000
 85 C      5.8495     6.0000     0.1505     4.0050     4.0050     0.0000
 86 C      5.8703     6.0000     0.1297     4.0337     4.0337    -0.0000
 87 C      5.8422     6.0000     0.1578     3.9732     3.9732     0.0000
 88 C      5.8168     6.0000     0.1832     3.9876     3.9876     0.0000
 89 C      5.7468     6.0000     0.2532     3.9202     3.9202    -0.0000
 90 O      8.2962     8.0000    -0.2962     2.1008     2.1008     0.0000
 91 O      8.2843     8.0000    -0.2843     2.1177     2.1177    -0.0000
 92 O      8.3828     8.0000    -0.3828     2.0572     2.0572    -0.0000
 93 O      8.3787     8.0000    -0.3787     2.0897     2.0897    -0.0000
 94 O      8.3918     8.0000    -0.3918     2.1080     2.1080    -0.0000
 95 H      0.9883     1.0000     0.0117     1.0160     1.0160     0.0000
 96 H      1.0150     1.0000    -0.0150     0.9910     0.9910     0.0000
 97 H      1.0058     1.0000    -0.0058     1.0143     1.0143    -0.0000
 98 H      1.0157     1.0000    -0.0157     1.0048     1.0048     0.0000
 99 H      0.9810     1.0000     0.0190     1.0356     1.0356     0.0000
100 H      1.0225     1.0000    -0.0225     1.0085     1.0085     0.0000
101 H      0.9879     1.0000     0.0121     0.9972     0.9972     0.0000
102 H      0.8336     1.0000     0.1664     1.0218     1.0218     0.0000
103 H      0.8369     1.0000     0.1631     1.0225     1.0225     0.0000
104 C      5.7416     6.0000     0.2584     3.9212     3.9212     0.0000
105 C      5.6491     6.0000     0.3509     4.0243     4.0243    -0.0000
106 C      5.8383     6.0000     0.1617     4.0153     4.0153    -0.0000
107 C      5.8379     6.0000     0.1621     3.9873     3.9873    -0.0000
108 C      5.8472     6.0000     0.1528     4.0048     4.0048    -0.0000
109 C      5.8598     6.0000     0.1402     3.9726     3.9726    -0.0000
110 C      5.7197     6.0000     0.2803     3.9775     3.9775    -0.0000
111 O      8.2842     8.0000    -0.2842     2.1038     2.1038     0.0000
112 O      8.2988     8.0000    -0.2988     2.1114     2.1114    -0.0000
113 O      8.3868     8.0000    -0.3868     2.0604     2.0604     0.0000
114 O      8.3746     8.0000    -0.3746     2.0913     2.0913     0.0000
115 O      8.3872     8.0000    -0.3872     2.1045     2.1045    -0.0000
116 H      1.0062     1.0000    -0.0062     0.9968     0.9968    -0.0000
117 H      1.0206     1.0000    -0.0206     0.9909     0.9909    -0.0000
118 H      1.0091     1.0000    -0.0091     1.0240     1.0240    -0.0000
119 H      1.0144     1.0000    -0.0144     0.9974     0.9974     0.0000
120 H      0.9922     1.0000     0.0078     1.0299     1.0299     0.0000
121 H      1.0137     1.0000    -0.0137     0.9934     0.9934     0.0000
122 H      1.0017     1.0000    -0.0017     1.0060     1.0060    -0.0000
123 H      0.8335     1.0000     0.1665     1.0201     1.0201    -0.0000
124 H      0.8321     1.0000     0.1679     1.0305     1.0305     0.0000
125 C      5.7855     6.0000     0.2145     3.9284     3.9284     0.0000
126 C      5.6442     6.0000     0.3558     4.0173     4.0173    -0.0000
127 C      5.8488     6.0000     0.1512     4.0042     4.0042     0.0000
128 C      5.8659     6.0000     0.1341     4.0359     4.0359     0.0000
129 C      5.8315     6.0000     0.1685     3.9816     3.9816    -0.0000
130 C      5.8135     6.0000     0.1865     3.9847     3.9847    -0.0000
131 C      5.7570     6.0000     0.2430     3.9682     3.9682     0.0000
132 O      8.2828     8.0000    -0.2828     2.1052     2.1052    -0.0000
133 O      8.2819     8.0000    -0.2819     2.1193     2.1193     0.0000
134 O      8.3830     8.0000    -0.3830     2.0601     2.0601    -0.0000
135 O      8.3781     8.0000    -0.3781     2.0957     2.0957     0.0000
136 O      8.3848     8.0000    -0.3848     2.0998     2.0998    -0.0000
137 H      1.0149     1.0000    -0.0149     0.9978     0.9978    -0.0000
138 H      1.0202     1.0000    -0.0202     0.9901     0.9901    -0.0000
139 H      1.0095     1.0000    -0.0095     1.0145     1.0145    -0.0000
140 H      1.0189     1.0000    -0.0189     1.0049     1.0049     0.0000
141 H      0.9933     1.0000     0.0067     1.0250     1.0250    -0.0000
142 H      1.0284     1.0000    -0.0284     0.9823     0.9823    -0.0000
143 H      0.9718     1.0000     0.0282     1.0026     1.0026    -0.0000
144 H      0.8350     1.0000     0.1650     1.0231     1.0231     0.0000
145 H      0.8367     1.0000     0.1633     1.0228     1.0228     0.0000
146 C      5.7546     6.0000     0.2454     3.9417     3.9417     0.0000
147 H      0.9938     1.0000     0.0062     0.9974     0.9974     0.0000
148 C      5.9449     6.0000     0.0551     4.1900     4.1900    -0.0000
149 H      1.0119     1.0000    -0.0119     0.9972     0.9972    -0.0000
150 H      0.9887     1.0000     0.0113     0.9848     0.9848    -0.0000
151 O      8.3028     8.0000    -0.3028     2.0921     2.0921    -0.0000
152 C      5.9799     6.0000     0.0201     3.9423     3.9423    -0.0000
153 H      0.9900     1.0000     0.0100     0.9915     0.9915     0.0000
154 H      0.9972     1.0000     0.0028     0.9945     0.9945     0.0000
155 H      0.9885     1.0000     0.0115     0.9991     0.9991    -0.0000
156 H      0.8204     1.0000     0.1796     0.9998     0.9998    -0.0000
157 H      0.9948     1.0000     0.0052     1.0219     1.0219    -0.0000
158 H      1.0218     1.0000    -0.0218     0.9992     0.9992    -0.0000
159 C      5.9325     6.0000     0.0675     4.1757     4.1757     0.0000
160 H      0.9962     1.0000     0.0038     1.0062     1.0062    -0.0000
161 C      5.9837     6.0000     0.0163     3.9362     3.9362     0.0000
162 O      8.3195     8.0000    -0.3195     2.0814     2.0814     0.0000
163 H      0.9882     1.0000     0.0118     0.9902     0.9902     0.0000
164 H      0.9934     1.0000     0.0066     0.9971     0.9971     0.0000
165 H      0.9876     1.0000     0.0124     0.9953     0.9953     0.0000
166 H      0.8205     1.0000     0.1795     1.0156     1.0156     0.0000
167 H      1.0106     1.0000    -0.0106     0.9844     0.9844    -0.0000
168 H      1.0158     1.0000    -0.0158     1.0004     1.0004    -0.0000
169 C      5.9368     6.0000     0.0632     4.1767     4.1767     0.0000
170 H      0.9888     1.0000     0.0112     1.0048     1.0048    -0.0000
171 C      5.9812     6.0000     0.0188     3.9347     3.9347     0.0000
172 O      8.3169     8.0000    -0.3169     2.0844     2.0844    -0.0000
173 H      0.9941     1.0000     0.0059     0.9891     0.9891     0.0000
174 H      0.9927     1.0000     0.0073     0.9969     0.9969     0.0000
175 H      0.9834     1.0000     0.0166     0.9963     0.9963     0.0000
176 H      0.8183     1.0000     0.1817     1.0147     1.0147    -0.0000
177 H      0.9894     1.0000     0.0106     0.9905     0.9905    -0.0000
178 H      0.9962     1.0000     0.0038     1.0041     1.0041    -0.0000
179 C      5.9313     6.0000     0.0687     4.1577     4.1577     0.0000
180 H      1.0041     1.0000    -0.0041     0.9867     0.9867     0.0000
181 C      5.9857     6.0000     0.0143     3.9431     3.9431     0.0000
182 O      8.3075     8.0000    -0.3075     2.0835     2.0835    -0.0000
183 H      0.9882     1.0000     0.0118     0.9955     0.9955     0.0000
184 H      0.9871     1.0000     0.0129     1.0000     1.0000     0.0000
185 H      0.9995     1.0000     0.0005     0.9944     0.9944     0.0000
186 H      0.8245     1.0000     0.1755     1.0054     1.0054    -0.0000
187 H      0.9976     1.0000     0.0024     0.9751     0.9751     0.0000
188 H      1.0188     1.0000    -0.0188     1.0009     1.0009     0.0000
189 C      5.9298     6.0000     0.0702     4.1805     4.1805    -0.0000
190 H      0.9878     1.0000     0.0122     1.0032     1.0032    -0.0000
191 C      5.9852     6.0000     0.0148     3.9370     3.9370     0.0000
192 O      8.3168     8.0000    -0.3168     2.0845     2.0845    -0.0000
193 H      0.9855     1.0000     0.0145     0.9908     0.9908    -0.0000
194 H      0.9927     1.0000     0.0073     0.9965     0.9965    -0.0000
195 H      0.9852     1.0000     0.0148     0.9960     0.9960     0.0000
196 H      0.8202     1.0000     0.1798     1.0163     1.0163     0.0000
197 H      1.0315     1.0000    -0.0315     0.9811     0.9811    -0.0000
198 H      1.0051     1.0000    -0.0051     1.0016     1.0016     0.0000
199 C      5.9369     6.0000     0.0631     4.1756     4.1756    -0.0000
200 H      0.9923     1.0000     0.0077     1.0020     1.0020     0.0000
201 C      5.9802     6.0000     0.0198     3.9364     3.9364    -0.0000
202 O      8.3171     8.0000    -0.3171     2.0823     2.0823     0.0000
203 H      0.9948     1.0000     0.0052     0.9885     0.9885    -0.0000
204 H      0.9894     1.0000     0.0106     0.9972     0.9972    -0.0000
205 H      0.9832     1.0000     0.0168     0.9959     0.9959    -0.0000
206 H      0.8205     1.0000     0.1795     1.0179     1.0179     0.0000
207 H      0.9915     1.0000     0.0085     0.9853     0.9853    -0.0000
208 H      0.9921     1.0000     0.0079     1.0021     1.0021    -0.0000
209 C      5.9372     6.0000     0.0628     4.1583     4.1583     0.0000
210 H      0.9856     1.0000     0.0144     1.0166     1.0166    -0.0000
211 C      5.9991     6.0000     0.0009     3.9399     3.9399    -0.0000
212 O      8.3183     8.0000    -0.3183     2.0624     2.0624    -0.0000
213 H      0.9761     1.0000     0.0239     0.9971     0.9971    -0.0000
214 H      0.9990     1.0000     0.0010     0.9995     0.9995     0.0000
215 H      0.9944     1.0000     0.0056     1.0203     1.0203     0.0000
216 H      0.8279     1.0000     0.1721     1.0145     1.0145    -0.0000

  Mayer bond orders larger than 0.100000
B(  0-C ,  1-C ) :   0.9793 B(  0-C ,  9-O ) :   1.0155 B(  0-C , 11-H ) :   0.9066 
B(  0-C , 29-O ) :   0.9576 B(  1-C ,  2-C ) :   0.9526 B(  1-C ,  6-O ) :   1.0704 
B(  1-C , 12-H ) :   0.9083 B(  2-C ,  3-C ) :   1.0062 B(  2-C ,  7-O ) :   1.0967 
B(  2-C , 13-H ) :   0.9084 B(  3-C ,  4-C ) :   1.0026 B(  3-C ,  8-O ) :   0.9616 
B(  3-C , 14-H ) :   0.8753 B(  4-C ,  5-C ) :   1.0195 B(  4-C ,  9-O ) :   0.9600 
B(  4-C , 15-H ) :   0.8889 B(  5-C , 10-O ) :   1.0125 B(  5-C , 16-H ) :   0.9175 
B(  5-C , 17-H ) :   0.9321 B(  6-O , 18-H ) :   0.9625 B(  7-O , 19-H ) :   0.9643 
B(  8-O ,126-C ) :   0.9629 B( 10-O , 20-C ) :   0.9714 B( 20-C ,157-H ) :   0.9292 
B( 20-C ,158-H ) :   0.9054 B( 20-C ,159-C ) :   1.0348 B( 21-C , 22-C ) :   0.9843 
B( 21-C , 30-O ) :   1.0265 B( 21-C , 32-H ) :   0.9019 B( 21-C , 50-O ) :   0.9718 
B( 22-C , 23-C ) :   0.9736 B( 22-C , 27-O ) :   1.0592 B( 22-C , 33-H ) :   0.9115 
B( 23-C , 24-C ) :   0.9942 B( 23-C , 28-O ) :   1.0900 B( 23-C , 34-H ) :   0.9128 
B( 24-C , 25-C ) :   1.0089 B( 24-C , 29-O ) :   0.9685 B( 24-C , 35-H ) :   0.8745 
B( 25-C , 26-C ) :   1.0195 B( 25-C , 30-O ) :   0.9606 B( 25-C , 36-H ) :   0.8787 
B( 26-C , 31-O ) :   0.9960 B( 26-C , 37-H ) :   0.9192 B( 26-C , 38-H ) :   0.9237 
B( 27-O , 39-H ) :   0.9629 B( 28-O , 40-H ) :   0.9656 B( 31-O , 41-C ) :   0.9851 
B( 41-C ,167-H ) :   0.9334 B( 41-C ,168-H ) :   0.9104 B( 41-C ,169-C ) :   1.0298 
B( 42-C , 43-C ) :   0.9817 B( 42-C , 51-O ) :   1.0125 B( 42-C , 53-H ) :   0.9064 
B( 42-C , 71-O ) :   0.9570 B( 43-C , 44-C ) :   0.9612 B( 43-C , 48-O ) :   1.0745 
B( 43-C , 54-H ) :   0.9078 B( 44-C , 45-C ) :   1.0064 B( 44-C , 49-O ) :   1.0615 
B( 44-C , 55-H ) :   0.9034 B( 45-C , 46-C ) :   1.0003 B( 45-C , 50-O ) :   0.9769 
B( 45-C , 56-H ) :   0.8825 B( 46-C , 47-C ) :   1.0354 B( 46-C , 51-O ) :   0.9553 
B( 46-C , 57-H ) :   0.8910 B( 47-C , 52-O ) :   0.9835 B( 47-C , 58-H ) :   0.9221 
B( 47-C , 59-H ) :   0.9305 B( 48-O , 60-H ) :   0.9631 B( 49-O , 61-H ) :   0.9582 
B( 52-O , 62-C ) :   0.9962 B( 62-C ,177-H ) :   0.9409 B( 62-C ,178-H ) :   0.9257 
B( 62-C ,179-C ) :   1.0301 B( 63-C , 64-C ) :   0.9781 B( 63-C , 72-O ) :   1.0079 
B( 63-C , 74-H ) :   0.9075 B( 63-C , 92-O ) :   0.9568 B( 64-C , 65-C ) :   0.9545 
B( 64-C , 69-O ) :   1.0726 B( 64-C , 75-H ) :   0.9083 B( 65-C , 66-C ) :   1.0023 
B( 65-C , 70-O ) :   1.0965 B( 65-C , 76-H ) :   0.9104 B( 66-C , 67-C ) :   1.0059 
B( 66-C , 71-O ) :   0.9674 B( 66-C , 77-H ) :   0.8748 B( 67-C , 68-C ) :   1.0205 
B( 67-C , 72-O ) :   0.9603 B( 67-C , 78-H ) :   0.8845 B( 68-C , 73-O ) :   0.9989 
B( 68-C , 79-H ) :   0.9199 B( 68-C , 80-H ) :   0.9304 B( 69-O , 81-H ) :   0.9628 
B( 70-O , 82-H ) :   0.9649 B( 73-O , 83-C ) :   0.9736 B( 83-C ,187-H ) :   0.9262 
B( 83-C ,188-H ) :   0.9101 B( 83-C ,189-C ) :   1.0369 B( 84-C , 85-C ) :   0.9820 
B( 84-C , 93-O ) :   1.0265 B( 84-C , 95-H ) :   0.9031 B( 84-C ,113-O ) :   0.9631 
B( 85-C , 86-C ) :   0.9722 B( 85-C , 90-O ) :   1.0626 B( 85-C , 96-H ) :   0.9125 
B( 86-C , 87-C ) :   0.9933 B( 86-C , 91-O ) :   1.0908 B( 86-C , 97-H ) :   0.9129 
B( 87-C , 88-C ) :   1.0065 B( 87-C , 92-O ) :   0.9645 B( 87-C , 98-H ) :   0.8767 
B( 88-C , 89-C ) :   1.0199 B( 88-C , 93-O ) :   0.9643 B( 88-C , 99-H ) :   0.8820 
B( 89-C , 94-O ) :   0.9807 B( 89-C ,100-H ) :   0.9219 B( 89-C ,101-H ) :   0.9288 
B( 90-O ,102-H ) :   0.9632 B( 91-O ,103-H ) :   0.9660 B( 94-O ,104-C ) :   0.9791 
B(104-C ,197-H ) :   0.9287 B(104-C ,198-H ) :   0.9139 B(104-C ,199-C ) :   1.0332 
B(105-C ,106-C ) :   0.9839 B(105-C ,114-O ) :   1.0114 B(105-C ,116-H ) :   0.9146 
B(105-C ,134-O ) :   0.9554 B(106-C ,107-C ) :   0.9641 B(106-C ,111-O ) :   1.0739 
B(106-C ,117-H ) :   0.9073 B(107-C ,108-C ) :   1.0024 B(107-C ,112-O ) :   1.0628 
B(107-C ,118-H ) :   0.9051 B(108-C ,109-C ) :   0.9985 B(108-C ,113-O ) :   0.9708 
B(108-C ,119-H ) :   0.8854 B(109-C ,110-C ) :   1.0180 B(109-C ,114-O ) :   0.9577 
B(109-C ,120-H ) :   0.8916 B(110-C ,115-O ) :   1.0179 B(110-C ,121-H ) :   0.9240 
B(110-C ,122-H ) :   0.9393 B(111-O ,123-H ) :   0.9636 B(112-O ,124-H ) :   0.9581 
B(115-O ,125-C ) :   0.9611 B(125-C ,207-H ) :   0.9315 B(125-C ,208-H ) :   0.9132 
B(125-C ,209-C ) :   1.0365 B(126-C ,127-C ) :   0.9796 B(126-C ,135-O ) :   1.0159 
B(126-C ,137-H ) :   0.9064 B(127-C ,128-C ) :   0.9615 B(127-C ,132-O ) :   1.0753 
B(127-C ,138-H ) :   0.9087 B(128-C ,129-C ) :   1.0008 B(128-C ,133-O ) :   1.0982 
B(128-C ,139-H ) :   0.9111 B(129-C ,130-C ) :   1.0049 B(129-C ,134-O ) :   0.9678 
B(129-C ,140-H ) :   0.8729 B(130-C ,131-C ) :   1.0322 B(130-C ,135-O ) :   0.9537 
B(130-C ,141-H ) :   0.8885 B(131-C ,136-O ) :   0.9974 B(131-C ,142-H ) :   0.9168 
B(131-C ,143-H ) :   0.9256 B(132-O ,144-H ) :   0.9621 B(133-O ,145-H ) :   0.9654 
B(136-O ,146-C ) :   0.9810 B(146-C ,147-H ) :   0.9344 B(146-C ,148-C ) :   1.0453 
B(146-C ,149-H ) :   0.9112 B(148-C ,150-H ) :   0.9253 B(148-C ,151-O ) :   1.0292 
B(148-C ,152-C ) :   1.0626 B(151-O ,156-H ) :   0.9627 B(152-C ,153-H ) :   0.9556 
B(152-C ,154-H ) :   0.9571 B(152-C ,155-H ) :   0.9593 B(159-C ,160-H ) :   0.9285 
B(159-C ,161-C ) :   1.0617 B(159-C ,162-O ) :   1.0390 B(161-C ,163-H ) :   0.9631 
B(161-C ,164-H ) :   0.9581 B(161-C ,165-H ) :   0.9585 B(162-O ,166-H ) :   0.9661 
B(169-C ,170-H ) :   0.9287 B(169-C ,171-C ) :   1.0603 B(169-C ,172-O ) :   1.0474 
B(171-C ,173-H ) :   0.9621 B(171-C ,174-H ) :   0.9583 B(171-C ,175-H ) :   0.9587 
B(172-O ,176-H ) :   0.9669 B(179-C ,180-H ) :   0.9253 B(179-C ,181-C ) :   1.0629 
B(179-C ,182-O ) :   1.0432 B(181-C ,183-H ) :   0.9553 B(181-C ,184-H ) :   0.9578 
B(181-C ,185-H ) :   0.9571 B(182-O ,186-H ) :   0.9688 B(189-C ,190-H ) :   0.9297 
B(189-C ,191-C ) :   1.0616 B(189-C ,192-O ) :   1.0437 B(191-C ,193-H ) :   0.9627 
B(191-C ,194-H ) :   0.9584 B(191-C ,195-H ) :   0.9586 B(192-O ,196-H ) :   0.9676 
B(199-C ,200-H ) :   0.9292 B(199-C ,201-C ) :   1.0614 B(199-C ,202-O ) :   1.0422 
B(201-C ,203-H ) :   0.9621 B(201-C ,204-H ) :   0.9586 B(201-C ,205-H ) :   0.9589 
B(202-O ,206-H ) :   0.9687 B(209-C ,210-H ) :   0.9171 B(209-C ,211-C ) :   1.0593 
B(209-C ,212-O ) :   1.0392 B(211-C ,213-H ) :   0.9520 B(211-C ,214-H ) :   0.9493 
B(211-C ,215-H ) :   0.9574 B(212-O ,216-H ) :   0.9729 

-------
TIMINGS
-------

Total SCF time: 0 days 1 hours 3 min 18 sec 

Total time                  ....    3798.716 sec
Sum of individual times     ....    3772.438 sec  ( 99.3%)

Fock matrix formation       ....    3454.689 sec  ( 90.9%)
  Split-RI-J                ....     441.644 sec  ( 12.8% of F)
  Chain of spheres X        ....    2915.780 sec  ( 84.4% of F)
  XC integration            ....      94.274 sec  (  2.7% of F)
    Basis function eval.    ....      38.853 sec  ( 41.2% of XC)
    Density eval.           ....      27.714 sec  ( 29.4% of XC)
    XC-Functional eval.     ....       4.398 sec  (  4.7% of XC)
    XC-Potential eval.      ....      17.316 sec  ( 18.4% of XC)
Diagonalization             ....      17.644 sec  (  0.5%)
Density matrix formation    ....       2.074 sec  (  0.1%)
Population analysis         ....       2.227 sec  (  0.1%)
Initial guess               ....      33.493 sec  (  0.9%)
Orbital Transformation      ....       0.000 sec  (  0.0%)
Orbital Orthonormalization  ....       0.000 sec  (  0.0%)
DIIS solution               ....       7.203 sec  (  0.2%)
SOSCF solution              ....       5.317 sec  (  0.1%)
Grid generation             ....     249.791 sec  (  6.6%)

Maximum memory used throughout the entire SCF-calculation: 813.7 MB

-------------------------   --------------------
FINAL SINGLE POINT ENERGY     -5619.886290154135
-------------------------   --------------------


                            ***************************************
                            *     ORCA property calculations      *
                            ***************************************

                                    ---------------------
                                    Active property flags
                                    ---------------------
   (+) Dipole Moment


------------------------------------------------------------------------------
                       ORCA ELECTRIC PROPERTIES CALCULATION
------------------------------------------------------------------------------

Dipole Moment Calculation                       ... on
Quadrupole Moment Calculation                   ... off
Polarizability Calculation                      ... off
GBWName                                         ... cyclo1/cyclo1.gbw
Electron density                                ... cyclo1/cyclo1.scfp
The origin for moment calculation is the CENTER OF MASS  = (-49.936760, -54.735688 -26.403602)

-------------
DIPOLE MOMENT
-------------
                                X             Y             Z
Electronic contribution:     10.08935     -72.45409      39.48990
Nuclear contribution   :     -9.15267      69.88717     -37.97559
                        -----------------------------------------
Total Dipole Moment    :      0.93668      -2.56692       1.51431
                        -----------------------------------------
Magnitude (a.u.)       :      3.12403
Magnitude (Debye)      :      7.94066



--------------------
Rotational spectrum 
--------------------
 
Rotational constants in cm-1:     0.000534     0.000412     0.000318 
Rotational constants in MHz :    15.997294    12.358203     9.545338 

 Dipole components along the rotational axes: 
x,y,z [a.u.] :    -0.020353     0.000627    -3.123968 
x,y,z [Debye]:    -0.051732     0.001593    -7.940496 

 

Timings for individual modules:

Sum of individual times         ...     3813.224 sec (=  63.554 min)
GTO integral calculation        ...       14.029 sec (=   0.234 min)   0.4 %
SCF iterations                  ...     3799.195 sec (=  63.320 min)  99.6 %
                             ****ORCA TERMINATED NORMALLY****
TOTAL RUN TIME: 0 days 1 hours 3 minutes 36 seconds 791 msec
